 Entering Gaussian System, Link 0=g16
 Initial command:
 /Applications/g16/l1.exe "/Users/jorge/g16-scratch/Gau-6968.inp" -scrdir="/Users/jorge/g16-scratch/"
 Entering Link 1 = /Applications/g16/l1.exe PID=      6969.
  
 Copyright (c) 1988,1990,1992,1993,1995,1998,2003,2009,2016,
            Gaussian, Inc.  All Rights Reserved.
  
 This is part of the Gaussian(R) 16 program.  It is based on
 the Gaussian(R) 09 system (copyright 2009, Gaussian, Inc.),
 the Gaussian(R) 03 system (copyright 2003, Gaussian, Inc.),
 the Gaussian(R) 98 system (copyright 1998, Gaussian, Inc.),
 the Gaussian(R) 94 system (copyright 1995, Gaussian, Inc.),
 the Gaussian 92(TM) system (copyright 1992, Gaussian, Inc.),
 the Gaussian 90(TM) system (copyright 1990, Gaussian, Inc.),
 the Gaussian 88(TM) system (copyright 1988, Gaussian, Inc.),
 the Gaussian 86(TM) system (copyright 1986, Carnegie Mellon
 University), and the Gaussian 82(TM) system (copyright 1983,
 Carnegie Mellon University). Gaussian is a federally registered
 trademark of Gaussian, Inc.
  
 This software contains proprietary and confidential information,
 including trade secrets, belonging to Gaussian, Inc.
  
 This software is provided under written license and may be
 used, copied, transmitted, or stored only in accord with that
 written license.
  
 The following legend is applicable only to US Government
 contracts under FAR:
  
                    RESTRICTED RIGHTS LEGEND
  
 Use, reproduction and disclosure by the US Government is
 subject to restrictions as set forth in subparagraphs (a)
 and (c) of the Commercial Computer Software - Restricted
 Rights clause in FAR 52.227-19.
  
 Gaussian, Inc.
 340 Quinnipiac St., Bldg. 40, Wallingford CT 06492
  
  
 ---------------------------------------------------------------
 Warning -- This program may not be used in any manner that
 competes with the business of Gaussian, Inc. or will provide
 assistance to any competitor of Gaussian, Inc.  The licensee
 of this program is prohibited from giving any competitor of
 Gaussian, Inc. access to this program.  By using this program,
 the user acknowledges that Gaussian, Inc. is engaged in the
 business of creating and licensing software in the field of
 computational chemistry and represents and warrants to the
 licensee that it is not a competitor of Gaussian, Inc. and that
 it will not use this program in any manner prohibited above.
 ---------------------------------------------------------------
  

 Cite this work as:
 Gaussian 16, Revision A.03,
 M. J. Frisch, G. W. Trucks, H. B. Schlegel, G. E. Scuseria, 
 M. A. Robb, J. R. Cheeseman, G. Scalmani, V. Barone, 
 G. A. Petersson, H. Nakatsuji, X. Li, M. Caricato, A. V. Marenich, 
 J. Bloino, B. G. Janesko, R. Gomperts, B. Mennucci, H. P. Hratchian, 
 J. V. Ortiz, A. F. Izmaylov, J. L. Sonnenberg, D. Williams-Young, 
 F. Ding, F. Lipparini, F. Egidi, J. Goings, B. Peng, A. Petrone, 
 T. Henderson, D. Ranasinghe, V. G. Zakrzewski, J. Gao, N. Rega, 
 G. Zheng, W. Liang, M. Hada, M. Ehara, K. Toyota, R. Fukuda, 
 J. Hasegawa, M. Ishida, T. Nakajima, Y. Honda, O. Kitao, H. Nakai, 
 T. Vreven, K. Throssell, J. A. Montgomery, Jr., J. E. Peralta, 
 F. Ogliaro, M. J. Bearpark, J. J. Heyd, E. N. Brothers, K. N. Kudin, 
 V. N. Staroverov, T. A. Keith, R. Kobayashi, J. Normand, 
 K. Raghavachari, A. P. Rendell, J. C. Burant, S. S. Iyengar, 
 J. Tomasi, M. Cossi, J. M. Millam, M. Klene, C. Adamo, R. Cammi, 
 J. W. Ochterski, R. L. Martin, K. Morokuma, O. Farkas, 
 J. B. Foresman, and D. J. Fox, Gaussian, Inc., Wallingford CT, 2016.
 
 ******************************************
 Gaussian 16:  EM64M-G16RevA.03 25-Dec-2016
                17-Jun-2019 
 ******************************************
 %NProcShared=4
 Will use up to    4 processors via shared memory.
 ---------------
 #t hf/3-21g opt
 ---------------
 -------
 benzene
 -------
 Symbolic Z-matrix:
 Charge =  0 Multiplicity = 1
 C                    -1.91944   3.22031   0. 
 C                    -0.66308   3.28994   0. 
 C                    -2.23032   2.38434   0.59109 
 C                    -0.31266   3.41268   1.00352 
 C                    -0.62354   2.5767    1.59461 
 C                    -1.83256   2.25281   1.94409 
 H                    -2.55213   3.86913  -0.49372 
 H                    -2.83131   1.66024   0.16739 
 H                     0.12755   1.9521    1.92742 
 H                    -2.30216   2.00547   2.82915 
 H                    -0.0634    3.23688  -0.83821 
 H                     0.23969   4.21346   1.348 
 

 GradGradGradGradGradGradGradGradGradGradGradGradGradGradGradGradGradGrad
 Initialization pass.
                           ----------------------------
                           !    Initial Parameters    !
                           ! (Angstroms and Degrees)  !
 --------------------------                            --------------------------
 ! Name  Definition              Value          Derivative Info.                !
 --------------------------------------------------------------------------------
 ! R1    R(1,2)                  1.2583         estimate D2E/DX2                !
 ! R2    R(1,3)                  1.07           estimate D2E/DX2                !
 ! R3    R(1,7)                  1.032          estimate D2E/DX2                !
 ! R4    R(2,4)                  1.07           estimate D2E/DX2                !
 ! R5    R(2,5)                  1.7473         estimate D2E/DX2                !
 ! R6    R(2,11)                 1.032          estimate D2E/DX2                !
 ! R7    R(3,6)                  1.4164         estimate D2E/DX2                !
 ! R8    R(3,8)                  1.032          estimate D2E/DX2                !
 ! R9    R(4,5)                  1.07           estimate D2E/DX2                !
 ! R10   R(4,12)                 1.032          estimate D2E/DX2                !
 ! R11   R(5,6)                  1.2995         estimate D2E/DX2                !
 ! R12   R(5,9)                  1.032          estimate D2E/DX2                !
 ! R13   R(6,10)                 1.032          estimate D2E/DX2                !
 ! A1    A(2,1,3)              109.4712         estimate D2E/DX2                !
 ! A2    A(2,1,7)              125.2638         estimate D2E/DX2                !
 ! A3    A(3,1,7)              125.265          estimate D2E/DX2                !
 ! A4    A(1,2,4)              109.4716         estimate D2E/DX2                !
 ! A5    A(1,2,5)               90.0004         estimate D2E/DX2                !
 ! A6    A(1,2,11)             125.2643         estimate D2E/DX2                !
 ! A7    A(4,2,11)             125.2641         estimate D2E/DX2                !
 ! A8    A(5,2,11)             134.9998         estimate D2E/DX2                !
 ! A9    A(1,3,6)              121.2429         estimate D2E/DX2                !
 ! A10   A(1,3,8)              119.3788         estimate D2E/DX2                !
 ! A11   A(6,3,8)              119.3783         estimate D2E/DX2                !
 ! A12   A(2,4,12)             125.2646         estimate D2E/DX2                !
 ! A13   A(5,4,12)             125.2647         estimate D2E/DX2                !
 ! A14   A(2,5,6)              109.033          estimate D2E/DX2                !
 ! A15   A(2,5,9)              123.906          estimate D2E/DX2                !
 ! A16   A(4,5,6)              127.85           estimate D2E/DX2                !
 ! A17   A(4,5,9)              116.0756         estimate D2E/DX2                !
 ! A18   A(6,5,9)              116.0745         estimate D2E/DX2                !
 ! A19   A(3,6,5)               88.9245         estimate D2E/DX2                !
 ! A20   A(3,6,10)             135.5374         estimate D2E/DX2                !
 ! A21   A(5,6,10)             135.5381         estimate D2E/DX2                !
 ! D1    D(3,1,2,4)            -60.0002         estimate D2E/DX2                !
 ! D2    D(3,1,2,5)            -30.0            estimate D2E/DX2                !
 ! D3    D(3,1,2,11)           120.0001         estimate D2E/DX2                !
 ! D4    D(7,1,2,4)            119.9992         estimate D2E/DX2                !
 ! D5    D(7,1,2,5)            149.9994         estimate D2E/DX2                !
 ! D6    D(7,1,2,11)           -60.0006         estimate D2E/DX2                !
 ! D7    D(2,1,3,6)             56.223          estimate D2E/DX2                !
 ! D8    D(2,1,3,8)           -123.7774         estimate D2E/DX2                !
 ! D9    D(7,1,3,6)           -123.7764         estimate D2E/DX2                !
 ! D10   D(7,1,3,8)             56.2233         estimate D2E/DX2                !
 ! D11   D(1,2,4,12)          -119.9994         estimate D2E/DX2                !
 ! D12   D(11,2,4,12)           60.0003         estimate D2E/DX2                !
 ! D13   D(1,2,5,6)              4.2575         estimate D2E/DX2                !
 ! D14   D(1,2,5,9)            146.6382         estimate D2E/DX2                !
 ! D15   D(11,2,5,6)          -140.4783         estimate D2E/DX2                !
 ! D16   D(11,2,5,9)             1.9025         estimate D2E/DX2                !
 ! D17   D(1,3,6,5)            -45.0559         estimate D2E/DX2                !
 ! D18   D(1,3,6,10)           134.9446         estimate D2E/DX2                !
 ! D19   D(8,3,6,5)            134.9444         estimate D2E/DX2                !
 ! D20   D(8,3,6,10)           -45.0551         estimate D2E/DX2                !
 ! D21   D(12,4,5,6)           112.5571         estimate D2E/DX2                !
 ! D22   D(12,4,5,9)           -67.4427         estimate D2E/DX2                !
 ! D23   D(2,5,6,3)             15.6962         estimate D2E/DX2                !
 ! D24   D(2,5,6,10)          -164.3043         estimate D2E/DX2                !
 ! D25   D(4,5,6,3)             50.0305         estimate D2E/DX2                !
 ! D26   D(4,5,6,10)          -129.97           estimate D2E/DX2                !
 ! D27   D(9,5,6,3)           -129.9698         estimate D2E/DX2                !
 ! D28   D(9,5,6,10)            50.0297         estimate D2E/DX2                !
 --------------------------------------------------------------------------------
 Number of steps in this run=     72 maximum allowed number of steps=    100.
 GradGradGradGradGradGradGradGradGradGradGradGradGradGradGradGradGradGrad

                    Distance matrix (angstroms):
                    1          2          3          4          5
     1  C    0.000000
     2  C    1.258288   0.000000
     3  C    1.069990   1.904138   0.000000
     4  C    1.904154   1.070005   2.214724   0.000000
     5  C    2.153224   1.747300   1.904152   1.069998   0.000000
     6  C    2.173267   2.494556   1.416376   2.130743   1.299527
     7  H    1.032000   2.036598   1.866809   2.732270   3.122652
     8  H    1.814757   2.717566   1.032004   3.180213   2.784081
     9  H    3.084392   2.475855   2.744478   1.783443   1.032000
    10  H    3.102644   3.512910   2.271039   3.044877   2.160592
    11  H    2.036604   1.032002   2.732264   1.866817   2.582287
    12  H    2.732269   1.866812   3.165366   1.031991   1.866806
                    6          7          8          9         10
     6  C    0.000000
     7  H    3.012173   0.000000
     8  H    2.122570   2.322542   0.000000
     9  H    1.983113   4.088717   3.455104   0.000000
    10  H    1.032004   3.818007   2.735717   2.592191   0.000000
    11  H    3.440860   2.590790   3.340412   3.055459   4.469670
    12  H    2.914394   3.362254   4.164590   2.337103   3.678318
                   11         12
    11  H    0.000000
    12  H    2.413522   0.000000
 Framework group  C1[X(C6H6)]
 Deg. of freedom    30
                         Standard orientation:                         
 ---------------------------------------------------------------------
 Center     Atomic      Atomic             Coordinates (Angstroms)
 Number     Number       Type             X           Y           Z
 ---------------------------------------------------------------------
      1          6           0       -0.367875    1.059081   -0.199074
      2          6           0       -1.106858    0.114621    0.181963
      3          6           0        0.627601    0.900046    0.159556
      4          6           0       -0.731907   -0.809943   -0.204695
      5          6           0        0.263574   -0.968978    0.153943
      6          6           0        1.333679   -0.291454   -0.136932
      7          1           0       -0.674495    1.862743   -0.769280
      8          1           0        1.081836    1.628538    0.732269
      9          1           0        0.389079   -1.755506    0.810179
     10          1           0        2.289442   -0.522708   -0.450093
     11          1           0       -1.944934    0.216045    0.775570
     12          1           0       -1.250211   -1.449349   -0.827212
 ---------------------------------------------------------------------
 Rotational constants (GHZ):           8.3258663           7.4752345           4.3072717
    66 basis functions,   108 primitive gaussians,    66 cartesian basis functions
    21 alpha electrons       21 beta electrons
       nuclear repulsion energy       240.3687232308 Hartrees.
 NAtoms=   12 NActive=   12 NUniq=   12 SFac= 1.00D+00 NAtFMM=   60 NAOKFM=F Big=F
 ExpMin= 1.83D-01 ExpMax= 1.72D+02 ExpMxC= 1.72D+02 IAcc=3 IRadAn=         5 AccDes= 0.00D+00
 Harris functional with IExCor=  205 and IRadAn=       5 diagonalized for initial guess.
 HarFok:  IExCor=  205 AccDes= 0.00D+00 IRadAn=         5 IDoV= 1 UseB2=F ITyADJ=14
 ICtDFT=  3500011 ScaDFX=  1.000000  1.000000  1.000000  1.000000
 FoFCou: FMM=F IPFlag=           0 FMFlag=      100000 FMFlg1=           0
         NFxFlg=           0 DoJE=T BraDBF=F KetDBF=T FulRan=T
         wScrn=  0.000000 ICntrl=       500 IOpCl=  0 I1Cent=   200000004 NGrid=           0
         NMat0=    1 NMatS0=      1 NMatT0=    0 NMatD0=    1 NMtDS0=    0 NMtDT0=    0
 Petite list used in FoFCou.
 SCF Done:  E(RHF) =  -228.324124346     A.U. after   18 cycles
            NFock= 18  Conv=0.87D-08     -V/T= 1.9713

 **********************************************************************

            Population analysis using the SCF density.

 **********************************************************************

 Orbital symmetries:
       Occupied  (A) (A) (A) (A) (A) (A) (A) (A) (A) (A) (A) (A)
                 (A) (A) (A) (A) (A) (A) (A) (A) (A)
       Virtual   (A) (A) (A) (A) (A) (A) (A) (A) (A) (A) (A) (A)
                 (A) (A) (A) (A) (A) (A) (A) (A) (A) (A) (A) (A)
                 (A) (A) (A) (A) (A) (A) (A) (A) (A) (A) (A) (A)
                 (A) (A) (A) (A) (A) (A) (A) (A) (A)
 The electronic state is 1-A.
 Alpha  occ. eigenvalues --  -11.16650 -11.14061 -11.12413 -11.12220 -11.10708
 Alpha  occ. eigenvalues --  -11.08050  -1.39287  -1.13067  -1.06490  -0.88576
 Alpha  occ. eigenvalues --   -0.80608  -0.79236  -0.75385  -0.66093  -0.65029
 Alpha  occ. eigenvalues --   -0.62035  -0.60037  -0.55073  -0.45547  -0.24249
 Alpha  occ. eigenvalues --   -0.19310
 Alpha virt. eigenvalues --    0.15305   0.16735   0.18677   0.31418   0.34981
 Alpha virt. eigenvalues --    0.35337   0.36643   0.38027   0.39793   0.52626
 Alpha virt. eigenvalues --    0.60381   0.61283   0.64649   0.66521   0.69067
 Alpha virt. eigenvalues --    0.79857   0.88546   0.96480   0.98307   0.99766
 Alpha virt. eigenvalues --    1.01669   1.05289   1.10548   1.14973   1.16189
 Alpha virt. eigenvalues --    1.18796   1.26015   1.28019   1.31529   1.36166
 Alpha virt. eigenvalues --    1.36501   1.39947   1.44078   1.45340   1.47284
 Alpha virt. eigenvalues --    1.53518   1.60334   1.65535   1.73264   1.77094
 Alpha virt. eigenvalues --    2.12597   2.13090   2.37039   2.45465   2.49934
          Condensed to atoms (all electrons):
 Mulliken charges:
               1
     1  C   -0.282199
     2  C   -0.298263
     3  C   -0.223562
     4  C   -0.131985
     5  C   -0.258743
     6  C   -0.297847
     7  H    0.274014
     8  H    0.214155
     9  H    0.289275
    10  H    0.233378
    11  H    0.235376
    12  H    0.246402
 Sum of Mulliken charges =  -0.00000
 Mulliken charges with hydrogens summed into heavy atoms:
               1
     1  C   -0.008185
     2  C   -0.062887
     3  C   -0.009407
     4  C    0.114417
     5  C    0.030532
     6  C   -0.064469
 Electronic spatial extent (au):  <R**2>=            345.3196
 Charge=              0.0000 electrons
 Dipole moment (field-independent basis, Debye):
    X=             -0.9250    Y=             -0.7257    Z=              0.4280  Tot=              1.2512
 Calling FoFJK, ICntrl=      2127 FMM=F ISym2X=0 I1Cent= 0 IOpClX= 0 NMat=1 NMatS=1 NMatT=0.

 GradGradGradGradGradGradGradGradGradGradGradGradGradGradGradGradGradGrad
 FormGI is forming the generalized inverse of G from B-inverse, IUseBI=4.
 Internal  Forces:  Max     0.664094517 RMS     0.166228964
 Step number   1 out of a maximum of   72
 All quantities printed in internal units (Hartrees-Bohrs-Radians)
 Mixed Optimization -- RFO/linear search
 Second derivative matrix not updated -- first step.
 ITU=  0
     Eigenvalues ---    0.02483   0.02768   0.03719   0.03856   0.04251
     Eigenvalues ---    0.05056   0.05870   0.06454   0.08636   0.11779
     Eigenvalues ---    0.13604   0.16000   0.16000   0.16000   0.16000
     Eigenvalues ---    0.18528   0.19333   0.20370   0.39199   0.42477
     Eigenvalues ---    0.42477   0.42477   0.42477   0.42477   0.42479
     Eigenvalues ---    0.59038   0.75618   1.32165   1.72454   1.86566
 Linear search not attempted -- first point.
 Maximum step size (   0.300) exceeded in Quadratic search.
    -- Step size scaled by   0.467
 Iteration  1 RMS(Cart)=  0.05729943 RMS(Int)=  0.00123038
 Iteration  2 RMS(Cart)=  0.00092873 RMS(Int)=  0.00076792
 Iteration  3 RMS(Cart)=  0.00000220 RMS(Int)=  0.00076792
 Iteration  4 RMS(Cart)=  0.00000001 RMS(Int)=  0.00076792
 Variable       Old X    -DE/DX   Delta X   Delta X   Delta X     New X
                                 (Linear)    (Quad)   (Total)
    R1        2.37782   0.34981   0.00000   0.10431   0.10417   2.48199
    R2        2.02199   0.66409   0.00000   0.11706   0.11738   2.13937
    R3        1.95020   0.03762   0.00000   0.01391   0.01391   1.96411
    R4        2.02202   0.45939   0.00000   0.10357   0.10602   2.12804
    R5        3.30192   0.54254   0.00000   0.12329   0.11996   3.42188
    R6        1.95020   0.04824   0.00000   0.01784   0.01784   1.96804
    R7        2.67656   0.03406   0.00000   0.02300   0.02334   2.69991
    R8        1.95020   0.05961   0.00000   0.02204   0.02204   1.97225
    R9        2.02200   0.57466   0.00000   0.11880   0.12108   2.14308
   R10        1.95018   0.05699   0.00000   0.02107   0.02107   1.97125
   R11        2.45575   0.22998   0.00000   0.05966   0.05967   2.51542
   R12        1.95020   0.05668   0.00000   0.02096   0.02096   1.97116
   R13        1.95021   0.02513   0.00000   0.00929   0.00929   1.95950
    A1        1.91063   0.00883   0.00000   0.02366   0.02352   1.93415
    A2        2.18627  -0.01689   0.00000  -0.01767  -0.01764   2.16862
    A3        2.18629   0.00805   0.00000  -0.00600  -0.00599   2.18030
    A4        1.91064   0.17166   0.00000   0.05775   0.05662   1.96726
    A5        1.57080  -0.02079   0.00000  -0.00742  -0.00720   1.56360
    A6        2.18627  -0.03258   0.00000  -0.01759  -0.01734   2.16893
    A7        2.18627  -0.13908   0.00000  -0.04016  -0.03928   2.14699
    A8        2.35619   0.04297   0.00000   0.02428   0.02402   2.38021
    A9        2.11609  -0.06944   0.00000  -0.02915  -0.03028   2.08581
   A10        2.08355   0.05416   0.00000   0.02367   0.02416   2.10771
   A11        2.08354   0.01528   0.00000   0.00548   0.00596   2.08951
   A12        2.18628   0.14116   0.00000   0.03054   0.03028   2.21656
   A13        2.18628   0.11731   0.00000   0.01938   0.01916   2.20545
   A14        1.90298  -0.02984   0.00000  -0.01746  -0.01642   1.88656
   A15        2.16257   0.06971   0.00000   0.02855   0.02779   2.19035
   A16        2.23140   0.15764   0.00000   0.04777   0.04692   2.27832
   A17        2.02590  -0.10434   0.00000  -0.03687  -0.03609   1.98982
   A18        2.02588  -0.05330   0.00000  -0.01090  -0.01083   2.01505
   A19        1.55203   0.16551   0.00000   0.05653   0.05624   1.60827
   A20        2.36557  -0.08606   0.00000  -0.02981  -0.02969   2.33589
   A21        2.36559  -0.07945   0.00000  -0.02672  -0.02658   2.33901
    D1       -1.04720  -0.01260   0.00000   0.01896   0.02011  -1.02709
    D2       -0.52360   0.05055   0.00000   0.01218   0.01239  -0.51121
    D3        2.09440   0.05566   0.00000   0.02221   0.02259   2.11699
    D4        2.09438  -0.04055   0.00000   0.00347   0.00426   2.09864
    D5        2.61798   0.02260   0.00000  -0.00331  -0.00346   2.61452
    D6       -1.04721   0.02771   0.00000   0.00672   0.00674  -1.04047
    D7        0.98128  -0.09494   0.00000  -0.04406  -0.04407   0.93721
    D8       -2.16032  -0.03720   0.00000  -0.02473  -0.02505  -2.18537
    D9       -2.16031  -0.06699   0.00000  -0.02857  -0.02809  -2.18839
   D10        0.98128  -0.00925   0.00000  -0.00924  -0.00907   0.97221
   D11       -2.09439   0.01815   0.00000  -0.00775  -0.00794  -2.10233
   D12        1.04720  -0.05012   0.00000  -0.01100  -0.01039   1.03682
   D13        0.07431   0.03345   0.00000  -0.00013  -0.00031   0.07400
   D14        2.55932  -0.01253   0.00000  -0.00658  -0.00637   2.55295
   D15       -2.45181   0.07386   0.00000   0.01355   0.01315  -2.43866
   D16        0.03320   0.02788   0.00000   0.00711   0.00708   0.04029
   D17       -0.78637   0.08644   0.00000   0.03607   0.03561  -0.75077
   D18        2.35523   0.09765   0.00000   0.02951   0.02879   2.38402
   D19        2.35522   0.02870   0.00000   0.01674   0.01679   2.37202
   D20       -0.78636   0.03991   0.00000   0.01018   0.00998  -0.77638
   D21        1.96449   0.00877   0.00000   0.01567   0.01630   1.98079
   D22       -1.17710   0.05846   0.00000   0.01691   0.01672  -1.16037
   D23        0.27395   0.02689   0.00000   0.00286   0.00268   0.27663
   D24       -2.86765   0.01569   0.00000   0.00942   0.00952  -2.85813
   D25        0.87320   0.06751   0.00000  -0.00693  -0.00813   0.86507
   D26       -2.26840   0.05631   0.00000  -0.00037  -0.00129  -2.26969
   D27       -2.26840   0.01782   0.00000  -0.00818  -0.00856  -2.27696
   D28        0.87318   0.00662   0.00000  -0.00162  -0.00172   0.87146
         Item               Value     Threshold  Converged?
 Maximum Force            0.664095     0.000450     NO 
 RMS     Force            0.166229     0.000300     NO 
 Maximum Displacement     0.205139     0.001800     NO 
 RMS     Displacement     0.057436     0.001200     NO 
 GradGradGradGradGradGradGradGradGradGradGradGradGradGradGradGradGradGrad

                    Distance matrix (angstroms):
                    1          2          3          4          5
     1  C    0.000000
     2  C    1.313411   0.000000
     3  C    1.132108   2.015849   0.000000
     4  C    2.033585   1.126110   2.384689   0.000000
     5  C    2.229295   1.810782   1.988868   1.134070   0.000000
     6  C    2.217270   2.558863   1.428729   2.240589   1.331101
     7  H    1.039362   2.083750   1.925910   2.856601   3.203191
     8  H    1.891985   2.851253   1.043667   3.361859   2.882138
     9  H    3.177288   2.561354   2.833775   1.826675   1.043090
    10  H    3.148861   3.579956   2.273460   3.146858   2.182924
    11  H    2.085693   1.041441   2.847236   1.905429   2.663411
    12  H    2.880529   1.941686   3.347014   1.043143   1.943463
                    6          7          8          9         10
     6  C    0.000000
     7  H    3.067307   0.000000
     8  H    2.146855   2.404374   0.000000
     9  H    2.013290   4.185877   3.560946   0.000000
    10  H    1.036921   3.876807   2.740836   2.605470   0.000000
    11  H    3.517542   2.627784   3.488021   3.173208   4.550358
    12  H    3.042822   3.515044   4.357342   2.390378   3.801283
                   11         12
    11  H    0.000000
    12  H    2.470730   0.000000
 Framework group  C1[X(C6H6)]
 Deg. of freedom    30
                         Standard orientation:                         
 ---------------------------------------------------------------------
 Center     Atomic      Atomic             Coordinates (Angstroms)
 Number     Number       Type             X           Y           Z
 ---------------------------------------------------------------------
      1          6           0       -0.049153    1.164137   -0.201732
      2          6           0       -1.068558    0.432139    0.185619
      3          6           0        0.926856    0.717086    0.157738
      4          6           0       -1.011488   -0.627310   -0.191785
      5          6           0       -0.010581   -1.036979    0.149492
      6          6           0        1.228446   -0.647045   -0.141356
      7          1           0       -0.132994    2.027800   -0.773861
      8          1           0        1.599526    1.284757    0.718546
      9          1           0       -0.083857   -1.852208    0.796076
     10          1           0        2.081278   -1.139507   -0.465955
     11          1           0       -1.851720    0.782844    0.775756
     12          1           0       -1.705365   -1.115858   -0.798417
 ---------------------------------------------------------------------
 Rotational constants (GHZ):           7.7572303           6.9076734           3.9620864
    66 basis functions,   108 primitive gaussians,    66 cartesian basis functions
    21 alpha electrons       21 beta electrons
       nuclear repulsion energy       231.3076190517 Hartrees.
 NAtoms=   12 NActive=   12 NUniq=   12 SFac= 1.00D+00 NAtFMM=   60 NAOKFM=F Big=F
 Initial guess from the checkpoint file:  "/Users/jorge/g16-scratch/Gau-6969.chk"
 B after Tr=    -0.000000   -0.000000    0.000000
         Rot=    0.989985    0.001679   -0.005391    0.141061 Ang=  16.23 deg.
 ExpMin= 1.83D-01 ExpMax= 1.72D+02 ExpMxC= 1.72D+02 IAcc=2 IRadAn=         4 AccDes= 0.00D+00
 Harris functional with IExCor=  205 and IRadAn=       4 diagonalized for initial guess.
 HarFok:  IExCor=  205 AccDes= 0.00D+00 IRadAn=         4 IDoV= 1 UseB2=F ITyADJ=14
 ICtDFT=  3500011 ScaDFX=  1.000000  1.000000  1.000000  1.000000
 FoFCou: FMM=F IPFlag=           0 FMFlag=      100000 FMFlg1=           0
         NFxFlg=           0 DoJE=T BraDBF=F KetDBF=T FulRan=T
         wScrn=  0.000000 ICntrl=       500 IOpCl=  0 I1Cent=   200000004 NGrid=           0
         NMat0=    1 NMatS0=      1 NMatT0=    0 NMatD0=    1 NMtDS0=    0 NMtDT0=    0
 Petite list used in FoFCou.
 SCF Done:  E(RHF) =  -228.653524234     A.U. after   17 cycles
            NFock= 17  Conv=0.77D-08     -V/T= 1.9800
 Calling FoFJK, ICntrl=      2127 FMM=F ISym2X=0 I1Cent= 0 IOpClX= 0 NMat=1 NMatS=1 NMatT=0.

 GradGradGradGradGradGradGradGradGradGradGradGradGradGradGradGradGradGrad
 Using GEDIIS/GDIIS optimizer.
 FormGI is forming the generalized inverse of G from B-inverse, IUseBI=4.
 Internal  Forces:  Max     0.438615013 RMS     0.113959146
 Step number   2 out of a maximum of   72
 All quantities printed in internal units (Hartrees-Bohrs-Radians)
 Mixed Optimization -- RFO/linear search
 Trust test= 9.70D-01 RLast= 3.13D-01 DXMaxT set to 5.05D-01
 ITU=  1  0
 Use linear search instead of GDIIS.
 Linear search step of   0.600 exceeds DXMaxT=   0.505 but not scaled.
 Quartic linear search produced a step of  2.00000.
 Iteration  1 RMS(Cart)=  0.10860295 RMS(Int)=  0.00929985
 Iteration  2 RMS(Cart)=  0.00851854 RMS(Int)=  0.00454338
 Iteration  3 RMS(Cart)=  0.00004493 RMS(Int)=  0.00454322
 Iteration  4 RMS(Cart)=  0.00000061 RMS(Int)=  0.00454322
 Variable       Old X    -DE/DX   Delta X   Delta X   Delta X     New X
                                 (Linear)    (Quad)   (Total)
    R1        2.48199   0.22593   0.20833   0.00000   0.20749   2.68948
    R2        2.13937   0.43862   0.23477   0.00000   0.23714   2.37652
    R3        1.96411   0.03018   0.02782   0.00000   0.02782   1.99193
    R4        2.12804   0.33551   0.21204   0.00000   0.22494   2.35297
    R5        3.42188   0.36599   0.23993   0.00000   0.22052   3.64241
    R6        1.96804   0.03915   0.03567   0.00000   0.03567   2.00371
    R7        2.69991   0.02541   0.04669   0.00000   0.04955   2.74945
    R8        1.97225   0.04334   0.04408   0.00000   0.04408   2.01633
    R9        2.14308   0.39680   0.24215   0.00000   0.25433   2.39741
   R10        1.97125   0.03736   0.04215   0.00000   0.04215   2.01340
   R11        2.51542   0.14403   0.11933   0.00000   0.11929   2.63471
   R12        1.97116   0.04547   0.04192   0.00000   0.04192   2.01307
   R13        1.95950   0.02152   0.01858   0.00000   0.01858   1.97808
    A1        1.93415   0.01793   0.04703   0.00000   0.04555   1.97970
    A2        2.16862  -0.01972  -0.03529   0.00000  -0.03481   2.13381
    A3        2.18030   0.00143  -0.01198   0.00000  -0.01178   2.16851
    A4        1.96726   0.12708   0.11324   0.00000   0.10417   2.07143
    A5        1.56360  -0.01207  -0.01440   0.00000  -0.01315   1.55045
    A6        2.16893  -0.03044  -0.03468   0.00000  -0.03244   2.13649
    A7        2.14699  -0.09672  -0.07857   0.00000  -0.07173   2.07526
    A8        2.38021   0.04026   0.04804   0.00000   0.04553   2.42574
    A9        2.08581  -0.06098  -0.06056   0.00000  -0.06602   2.01979
   A10        2.10771   0.04192   0.04832   0.00000   0.05065   2.15836
   A11        2.08951   0.01840   0.01193   0.00000   0.01421   2.10372
   A12        2.21656   0.08869   0.06055   0.00000   0.05819   2.27475
   A13        2.20545   0.07411   0.03833   0.00000   0.03669   2.24213
   A14        1.88656  -0.02934  -0.03285   0.00000  -0.02702   1.85954
   A15        2.19035   0.05847   0.05557   0.00000   0.05047   2.24083
   A16        2.27832   0.10942   0.09384   0.00000   0.08652   2.36484
   A17        1.98982  -0.07454  -0.07217   0.00000  -0.06591   1.92390
   A18        2.01505  -0.03489  -0.02167   0.00000  -0.02061   1.99444
   A19        1.60827   0.12780   0.11249   0.00000   0.11055   1.71882
   A20        2.33589  -0.06425  -0.05937   0.00000  -0.05859   2.27729
   A21        2.33901  -0.06355  -0.05316   0.00000  -0.05217   2.28683
    D1       -1.02709   0.01091   0.04023   0.00000   0.04674  -0.98035
    D2       -0.51121   0.03304   0.02478   0.00000   0.02674  -0.48447
    D3        2.11699   0.04853   0.04518   0.00000   0.04737   2.16436
    D4        2.09864  -0.01357   0.00852   0.00000   0.01293   2.11157
    D5        2.61452   0.00857  -0.00693   0.00000  -0.00707   2.60745
    D6       -1.04047   0.02405   0.01348   0.00000   0.01356  -1.02691
    D7        0.93721  -0.07708  -0.08813   0.00000  -0.08783   0.84938
    D8       -2.18537  -0.03732  -0.05010   0.00000  -0.05188  -2.23725
    D9       -2.18839  -0.05218  -0.05617   0.00000  -0.05300  -2.24139
   D10        0.97221  -0.01242  -0.01814   0.00000  -0.01705   0.95516
   D11       -2.10233   0.00728  -0.01589   0.00000  -0.01706  -2.11938
   D12        1.03682  -0.02969  -0.02077   0.00000  -0.01761   1.01920
   D13        0.07400   0.02023  -0.00062   0.00000  -0.00161   0.07239
   D14        2.55295  -0.00775  -0.01275   0.00000  -0.01113   2.54182
   D15       -2.43866   0.04606   0.02629   0.00000   0.02369  -2.41497
   D16        0.04029   0.01809   0.01416   0.00000   0.01417   0.05445
   D17       -0.75077   0.06679   0.07122   0.00000   0.06816  -0.68261
   D18        2.38402   0.06651   0.05758   0.00000   0.05316   2.43718
   D19        2.37202   0.02772   0.03359   0.00000   0.03386   2.40588
   D20       -0.77638   0.02744   0.01995   0.00000   0.01886  -0.75752
   D21        1.98079   0.02319   0.03260   0.00000   0.03598   2.01677
   D22       -1.16037   0.04373   0.03345   0.00000   0.03250  -1.12788
   D23        0.27663   0.01418   0.00536   0.00000   0.00391   0.28055
   D24       -2.85813   0.01446   0.01904   0.00000   0.01907  -2.83906
   D25        0.86507   0.02000  -0.01625   0.00000  -0.02270   0.84237
   D26       -2.26969   0.02028  -0.00258   0.00000  -0.00754  -2.27724
   D27       -2.27696  -0.00080  -0.01711   0.00000  -0.01912  -2.29608
   D28        0.87146  -0.00051  -0.00344   0.00000  -0.00396   0.86750
         Item               Value     Threshold  Converged?
 Maximum Force            0.438615     0.000450     NO 
 RMS     Force            0.113959     0.000300     NO 
 Maximum Displacement     0.416917     0.001800     NO 
 RMS     Displacement     0.114994     0.001200     NO 
 GradGradGradGradGradGradGradGradGradGradGradGradGradGradGradGradGradGrad

                    Distance matrix (angstroms):
                    1          2          3          4          5
     1  C    0.000000
     2  C    1.423210   0.000000
     3  C    1.257599   2.242849   0.000000
     4  C    2.297183   1.245141   2.734242   0.000000
     5  C    2.372566   1.927479   2.158493   1.268657   0.000000
     6  C    2.299318   2.681321   1.454949   2.465027   1.394228
     7  H    1.054086   2.176703   2.045642   3.108786   3.354764
     8  H    2.051271   3.124064   1.066994   3.736422   3.078472
     9  H    3.352195   2.720332   3.009471   1.918072   1.065271
    10  H    3.236743   3.706880   2.278140   3.353065   2.226092
    11  H    2.183463   1.060319   3.081588   1.987689   2.814887
    12  H    3.182652   2.098294   3.720665   1.065447   2.103866
                    6          7          8          9         10
     6  C    0.000000
     7  H    3.171547   0.000000
     8  H    2.198356   2.572712   0.000000
     9  H    2.073591   4.368865   3.768279   0.000000
    10  H    1.046754   3.990055   2.753046   2.630828   0.000000
    11  H    3.663790   2.700690   3.788725   3.392176   4.703563
    12  H    3.303705   3.823187   4.753865   2.503858   4.047994
                   11         12
    11  H    0.000000
    12  H    2.592306   0.000000
 Framework group  C1[X(C6H6)]
 Deg. of freedom    30
                         Standard orientation:                         
 ---------------------------------------------------------------------
 Center     Atomic      Atomic             Coordinates (Angstroms)
 Number     Number       Type             X           Y           Z
 ---------------------------------------------------------------------
      1          6           0        0.335436    1.205708   -0.203368
      2          6           0       -0.960730    0.767803    0.188701
      3          6           0        1.255779    0.426820    0.154203
      4          6           0       -1.342199   -0.363113   -0.166103
      5          6           0       -0.319203   -1.049073    0.137916
      6          6           0        1.044063   -0.980944   -0.146221
      7          1           0        0.485085    2.076240   -0.778587
      8          1           0        2.122695    0.742290    0.690311
      9          1           0       -0.595953   -1.866080    0.762986
     10          1           0        1.711214   -1.709887   -0.491541
     11          1           0       -1.612834    1.370087    0.768606
     12          1           0       -2.189076   -0.655852   -0.742541
 ---------------------------------------------------------------------
 Rotational constants (GHZ):           7.0368834           5.7490640           3.3797185
    66 basis functions,   108 primitive gaussians,    66 cartesian basis functions
    21 alpha electrons       21 beta electrons
       nuclear repulsion energy       215.3278010565 Hartrees.
 NAtoms=   12 NActive=   12 NUniq=   12 SFac= 1.00D+00 NAtFMM=   60 NAOKFM=F Big=F
 Initial guess from the checkpoint file:  "/Users/jorge/g16-scratch/Gau-6969.chk"
 B after Tr=     0.000000    0.000000    0.000000
         Rot=    0.989028   -0.000189   -0.009009    0.147452 Ang= -16.99 deg.
 ExpMin= 1.83D-01 ExpMax= 1.72D+02 ExpMxC= 1.72D+02 IAcc=2 IRadAn=         4 AccDes= 0.00D+00
 Harris functional with IExCor=  205 and IRadAn=       4 diagonalized for initial guess.
 HarFok:  IExCor=  205 AccDes= 0.00D+00 IRadAn=         4 IDoV= 1 UseB2=F ITyADJ=14
 ICtDFT=  3500011 ScaDFX=  1.000000  1.000000  1.000000  1.000000
 FoFCou: FMM=F IPFlag=           0 FMFlag=      100000 FMFlg1=           0
         NFxFlg=           0 DoJE=T BraDBF=F KetDBF=T FulRan=T
         wScrn=  0.000000 ICntrl=       500 IOpCl=  0 I1Cent=   200000004 NGrid=           0
         NMat0=    1 NMatS0=      1 NMatT0=    0 NMatD0=    1 NMtDS0=    0 NMtDT0=    0
 Petite list used in FoFCou.
 SCF Done:  E(RHF) =  -229.013566130     A.U. after   18 cycles
            NFock= 18  Conv=0.49D-08     -V/T= 1.9932
 Calling FoFJK, ICntrl=      2127 FMM=F ISym2X=0 I1Cent= 0 IOpClX= 0 NMat=1 NMatS=1 NMatT=0.

 GradGradGradGradGradGradGradGradGradGradGradGradGradGradGradGradGradGrad
 Using GEDIIS/GDIIS optimizer.
 FormGI is forming the generalized inverse of G from B-inverse, IUseBI=4.
 Internal  Forces:  Max     0.151568926 RMS     0.043602735
 Step number   3 out of a maximum of   72
 All quantities printed in internal units (Hartrees-Bohrs-Radians)
 Mixed Optimization -- RFO/linear search
 ITU=  0  1  0
 Use linear search instead of GDIIS.
 Linear search step of   0.617 exceeds DXMaxT=   0.505 but not scaled.
 Quartic linear search produced a step of  1.03305.
 Iteration  1 RMS(Cart)=  0.10888359 RMS(Int)=  0.01209330
 Iteration  2 RMS(Cart)=  0.01149651 RMS(Int)=  0.00593480
 Iteration  3 RMS(Cart)=  0.00008185 RMS(Int)=  0.00593441
 Iteration  4 RMS(Cart)=  0.00000118 RMS(Int)=  0.00593441
 Iteration  5 RMS(Cart)=  0.00000003 RMS(Int)=  0.00593441
 Variable       Old X    -DE/DX   Delta X   Delta X   Delta X     New X
                                 (Linear)    (Quad)   (Total)
    R1        2.68948   0.05931   0.21435   0.00000   0.21320   2.90268
    R2        2.37652   0.14953   0.24498   0.00000   0.24859   2.62511
    R3        1.99193   0.01511   0.02874   0.00000   0.02874   2.02068
    R4        2.35297   0.12768   0.23237   0.00000   0.24684   2.59981
    R5        3.64241   0.15157   0.22781   0.00000   0.20327   3.84567
    R6        2.00371   0.02149   0.03685   0.00000   0.03685   2.04057
    R7        2.74945   0.00653   0.05119   0.00000   0.05584   2.80529
    R8        2.01633   0.01418   0.04554   0.00000   0.04554   2.06187
    R9        2.39741   0.14427   0.26274   0.00000   0.27686   2.67427
   R10        2.01340   0.00611   0.04354   0.00000   0.04354   2.05694
   R11        2.63471   0.02021   0.12323   0.00000   0.12317   2.75788
   R12        2.01307   0.02494   0.04330   0.00000   0.04330   2.05637
   R13        1.97808   0.01455   0.01920   0.00000   0.01920   1.99728
    A1        1.97970   0.02008   0.04706   0.00000   0.04432   2.02402
    A2        2.13381  -0.01868  -0.03596   0.00000  -0.03489   2.09892
    A3        2.16851  -0.00231  -0.01217   0.00000  -0.01182   2.15670
    A4        2.07143   0.03834   0.10761   0.00000   0.09301   2.16444
    A5        1.55045  -0.00437  -0.01359   0.00000  -0.01237   1.53808
    A6        2.13649  -0.01688  -0.03352   0.00000  -0.02954   2.10694
    A7        2.07526  -0.02147  -0.07410   0.00000  -0.06347   2.01180
    A8        2.42574   0.02514   0.04703   0.00000   0.04267   2.46841
    A9        2.01979  -0.03087  -0.06820   0.00000  -0.07342   1.94637
   A10        2.15836   0.01650   0.05232   0.00000   0.05450   2.21286
   A11        2.10372   0.01359   0.01468   0.00000   0.01678   2.12050
   A12        2.27475   0.01665   0.06012   0.00000   0.05633   2.33108
   A13        2.24213   0.01226   0.03790   0.00000   0.03530   2.27744
   A14        1.85954  -0.02332  -0.02791   0.00000  -0.02124   1.83830
   A15        2.24083   0.03401   0.05214   0.00000   0.04497   2.28580
   A16        2.36484   0.02117   0.08938   0.00000   0.07721   2.44206
   A17        1.92390  -0.01448  -0.06809   0.00000  -0.05821   1.86569
   A18        1.99444  -0.00672  -0.02129   0.00000  -0.01904   1.97540
   A19        1.71882   0.06834   0.11420   0.00000   0.11161   1.83043
   A20        2.27729  -0.03098  -0.06053   0.00000  -0.05959   2.21770
   A21        2.28683  -0.03758  -0.05390   0.00000  -0.05252   2.23431
    D1       -0.98035   0.03259   0.04829   0.00000   0.05623  -0.92411
    D2       -0.48447   0.02032   0.02763   0.00000   0.03133  -0.45314
    D3        2.16436   0.03670   0.04894   0.00000   0.05172   2.21608
    D4        2.11157   0.01320   0.01335   0.00000   0.01866   2.13023
    D5        2.60745   0.00093  -0.00730   0.00000  -0.00625   2.60120
    D6       -1.02691   0.01731   0.01401   0.00000   0.01415  -1.01276
    D7        0.84938  -0.05000  -0.09073   0.00000  -0.08965   0.75972
    D8       -2.23725  -0.03402  -0.05359   0.00000  -0.05565  -2.29290
    D9       -2.24139  -0.02964  -0.05475   0.00000  -0.05002  -2.29141
   D10        0.95516  -0.01366  -0.01761   0.00000  -0.01601   0.93915
   D11       -2.11938  -0.00775  -0.01762   0.00000  -0.01920  -2.13858
   D12        1.01920  -0.01171  -0.01820   0.00000  -0.01487   1.00434
   D13        0.07239   0.00348  -0.00166   0.00000  -0.00280   0.06959
   D14        2.54182   0.00212  -0.01150   0.00000  -0.00912   2.53269
   D15       -2.41497   0.01046   0.02448   0.00000   0.02114  -2.39383
   D16        0.05445   0.00910   0.01463   0.00000   0.01482   0.06928
   D17       -0.68261   0.03830   0.07041   0.00000   0.06591  -0.61670
   D18        2.43718   0.02833   0.05492   0.00000   0.04878   2.48596
   D19        2.40588   0.02302   0.03498   0.00000   0.03547   2.44135
   D20       -0.75752   0.01305   0.01948   0.00000   0.01833  -0.73919
   D21        2.01677   0.03380   0.03717   0.00000   0.04096   2.05773
   D22       -1.12788   0.02435   0.03357   0.00000   0.03257  -1.09531
   D23        0.28055  -0.00076   0.00404   0.00000   0.00125   0.28179
   D24       -2.83906   0.00915   0.01970   0.00000   0.01870  -2.82036
   D25        0.84237  -0.02841  -0.02345   0.00000  -0.03085   0.81151
   D26       -2.27724  -0.01850  -0.00779   0.00000  -0.01340  -2.29064
   D27       -2.29608  -0.01867  -0.01975   0.00000  -0.02209  -2.31817
   D28        0.86750  -0.00876  -0.00409   0.00000  -0.00464   0.86286
         Item               Value     Threshold  Converged?
 Maximum Force            0.151569     0.000450     NO 
 RMS     Force            0.043603     0.000300     NO 
 Maximum Displacement     0.431071     0.001800     NO 
 RMS     Displacement     0.118169     0.001200     NO 
 GradGradGradGradGradGradGradGradGradGradGradGradGradGradGradGradGradGrad

                    Distance matrix (angstroms):
                    1          2          3          4          5
     1  C    0.000000
     2  C    1.536032   0.000000
     3  C    1.389148   2.481481   0.000000
     4  C    2.572221   1.375760   3.103964   0.000000
     5  C    2.509240   2.035042   2.333662   1.415163   0.000000
     6  C    2.376195   2.800239   1.484497   2.700565   1.459407
     7  H    1.069297   2.271149   2.171599   3.370807   3.499294
     8  H    2.221612   3.411401   1.091093   4.133752   3.280687
     9  H    3.518799   2.868671   3.187164   2.020388   1.088185
    10  H    3.321403   3.828836   2.283006   3.566532   2.268681
    11  H    2.284725   1.079821   3.329248   2.080132   2.956953
    12  H    3.497746   2.267478   4.115538   1.088487   2.277671
                    6          7          8          9         10
     6  C    0.000000
     7  H    3.271102   0.000000
     8  H    2.255350   2.752260   0.000000
     9  H    2.136431   4.543410   3.976234   0.000000
    10  H    1.056913   4.100892   2.767945   2.656276   0.000000
    11  H    3.805842   2.775810   4.105264   3.596157   4.851241
    12  H    3.575540   4.140909   5.173118   2.631525   4.300970
                   11         12
    11  H    0.000000
    12  H    2.727724   0.000000
 Framework group  C1[X(C6H6)]
 Deg. of freedom    30
                         Standard orientation:                         
 ---------------------------------------------------------------------
 Center     Atomic      Atomic             Coordinates (Angstroms)
 Number     Number       Type             X           Y           Z
 ---------------------------------------------------------------------
      1          6           0        0.506193    1.238611   -0.199954
      2          6           0       -0.942245    0.905272    0.187738
      3          6           0        1.462325    0.293442    0.149615
      4          6           0       -1.576030   -0.270461   -0.141937
      5          6           0       -0.435321   -1.064597    0.124181
      6          6           0        0.998644   -1.085376   -0.146343
      7          1           0        0.721974    2.112330   -0.777405
      8          1           0        2.409648    0.479454    0.658008
      9          1           0       -0.769951   -1.907166    0.726051
     10          1           0        1.580746   -1.888760   -0.510754
     11          1           0       -1.536793    1.606164    0.754550
     12          1           0       -2.487028   -0.503360   -0.690248
 ---------------------------------------------------------------------
 Rotational constants (GHZ):           6.5223037           4.7546212           2.8997771
    66 basis functions,   108 primitive gaussians,    66 cartesian basis functions
    21 alpha electrons       21 beta electrons
       nuclear repulsion energy       201.3181649013 Hartrees.
 NAtoms=   12 NActive=   12 NUniq=   12 SFac= 1.00D+00 NAtFMM=   60 NAOKFM=F Big=F
 Initial guess from the checkpoint file:  "/Users/jorge/g16-scratch/Gau-6969.chk"
 B after Tr=    -0.000000    0.000000   -0.000000
         Rot=    0.998733   -0.001915   -0.006628    0.049839 Ang=  -5.77 deg.
 ExpMin= 1.83D-01 ExpMax= 1.72D+02 ExpMxC= 1.72D+02 IAcc=2 IRadAn=         4 AccDes= 0.00D+00
 Harris functional with IExCor=  205 and IRadAn=       4 diagonalized for initial guess.
 HarFok:  IExCor=  205 AccDes= 0.00D+00 IRadAn=         4 IDoV= 1 UseB2=F ITyADJ=14
 ICtDFT=  3500011 ScaDFX=  1.000000  1.000000  1.000000  1.000000
 FoFCou: FMM=F IPFlag=           0 FMFlag=      100000 FMFlg1=           0
         NFxFlg=           0 DoJE=T BraDBF=F KetDBF=T FulRan=T
         wScrn=  0.000000 ICntrl=       500 IOpCl=  0 I1Cent=   200000004 NGrid=           0
         NMat0=    1 NMatS0=      1 NMatT0=    0 NMatD0=    1 NMtDS0=    0 NMtDT0=    0
 Petite list used in FoFCou.
 SCF Done:  E(RHF) =  -229.107772182     A.U. after   18 cycles
            NFock= 18  Conv=0.71D-08     -V/T= 2.0027
 Calling FoFJK, ICntrl=      2127 FMM=F ISym2X=0 I1Cent= 0 IOpClX= 0 NMat=1 NMatS=1 NMatT=0.

 GradGradGradGradGradGradGradGradGradGradGradGradGradGradGradGradGradGrad
 Using GEDIIS/GDIIS optimizer.
 FormGI is forming the generalized inverse of G from B-inverse, IUseBI=4.
 Internal  Forces:  Max     0.059139847 RMS     0.020836351
 Step number   4 out of a maximum of   72
 All quantities printed in internal units (Hartrees-Bohrs-Radians)
 Mixed Optimization -- RFO/linear search
 ITU=  0  0  1  0
 Use linear search instead of GDIIS.
     Eigenvalues ---    0.02249   0.02772   0.03605   0.03710   0.04288
     Eigenvalues ---    0.05146   0.05488   0.06553   0.07317   0.11519
     Eigenvalues ---    0.13381   0.14896   0.15905   0.15960   0.15979
     Eigenvalues ---    0.18592   0.18905   0.21292   0.40640   0.42446
     Eigenvalues ---    0.42477   0.42477   0.42477   0.42478   0.43316
     Eigenvalues ---    0.54592   0.61932   0.87946   1.78283   1.87870
 Quartic linear search produced a step of -0.00667.
 Iteration  1 RMS(Cart)=  0.08340181 RMS(Int)=  0.00826865
 Iteration  2 RMS(Cart)=  0.00914411 RMS(Int)=  0.00255578
 Iteration  3 RMS(Cart)=  0.00007206 RMS(Int)=  0.00255507
 Iteration  4 RMS(Cart)=  0.00000033 RMS(Int)=  0.00255507
 Variable       Old X    -DE/DX   Delta X   Delta X   Delta X     New X
                                 (Linear)    (Quad)   (Total)
    R1        2.90268  -0.03707  -0.00142  -0.05305  -0.05539   2.84729
    R2        2.62511  -0.00896  -0.00166  -0.02245  -0.02534   2.59977
    R3        2.02068   0.00073  -0.00019   0.00050   0.00031   2.02098
    R4        2.59981  -0.02020  -0.00165  -0.03141  -0.03090   2.56891
    R5        3.84567   0.05914  -0.00136   0.24153   0.23622   4.08189
    R6        2.04057   0.00423  -0.00025   0.00669   0.00644   2.04701
    R7        2.80529  -0.01975  -0.00037  -0.03747  -0.03747   2.76782
    R8        2.06187  -0.01045  -0.00030  -0.02080  -0.02110   2.04076
    R9        2.67427  -0.00747  -0.00185  -0.02684  -0.02394   2.65033
   R10        2.05694  -0.01748  -0.00029  -0.03393  -0.03422   2.02272
   R11        2.75788  -0.05837  -0.00082  -0.08229  -0.08205   2.67583
   R12        2.05637   0.00532  -0.00029   0.00844   0.00815   2.06452
   R13        1.99728   0.00753  -0.00013   0.01325   0.01313   2.01040
    A1        2.02402   0.01201  -0.00030   0.06174   0.05280   2.07682
    A2        2.09892  -0.01363   0.00023  -0.06018  -0.05674   2.04218
    A3        2.15670   0.00037   0.00008  -0.00831  -0.00580   2.15089
    A4        2.16444  -0.02152  -0.00062  -0.04545  -0.04718   2.11726
    A5        1.53808  -0.00375   0.00008  -0.00471  -0.00661   1.53147
    A6        2.10694  -0.00390   0.00020  -0.02847  -0.02761   2.07933
    A7        2.01180   0.02542   0.00042   0.07388   0.07399   2.08579
    A8        2.46841   0.01048  -0.00028   0.05682   0.05861   2.52702
    A9        1.94637   0.00509   0.00049   0.04856   0.04390   1.99027
   A10        2.21286  -0.00714  -0.00036  -0.04160  -0.03979   2.17307
   A11        2.12050   0.00179  -0.00011  -0.00866  -0.00608   2.11441
   A12        2.33108  -0.01909  -0.00038  -0.07218  -0.07445   2.25663
   A13        2.27744  -0.02182  -0.00024  -0.08348  -0.08750   2.18993
   A14        1.83830  -0.01874   0.00014  -0.06804  -0.07016   1.76814
   A15        2.28580   0.01568  -0.00030   0.07640   0.07593   2.36173
   A16        2.44206  -0.03773  -0.00051  -0.09614  -0.10136   2.34069
   A17        1.86569   0.02799   0.00039   0.06713   0.06965   1.93533
   A18        1.97540   0.00961   0.00013   0.02844   0.02909   2.00448
   A19        1.83043   0.02723  -0.00074   0.09690   0.09345   1.92388
   A20        2.21770  -0.00783   0.00040  -0.02776  -0.02690   2.19080
   A21        2.23431  -0.01978   0.00035  -0.07159  -0.07107   2.16324
    D1       -0.92411   0.03313  -0.00037   0.19964   0.20266  -0.72146
    D2       -0.45314   0.02010  -0.00021   0.10850   0.10582  -0.34732
    D3        2.21608   0.02790  -0.00034   0.16221   0.16085   2.37693
    D4        2.13023   0.01791  -0.00012   0.11658   0.12112   2.25135
    D5        2.60120   0.00488   0.00004   0.02544   0.02428   2.62548
    D6       -1.01276   0.01268  -0.00009   0.07915   0.07931  -0.93346
    D7        0.75972  -0.03190   0.00060  -0.18657  -0.18529   0.57443
    D8       -2.29290  -0.02875   0.00037  -0.16489  -0.16312  -2.45602
    D9       -2.29141  -0.01537   0.00033  -0.09776  -0.09584  -2.38725
   D10        0.93915  -0.01222   0.00011  -0.07608  -0.07367   0.86549
   D11       -2.13858  -0.01409   0.00013  -0.08698  -0.09228  -2.23086
   D12        1.00434  -0.00910   0.00010  -0.05133  -0.05025   0.95409
   D13        0.06959  -0.00423   0.00002  -0.00898  -0.00542   0.06416
   D14        2.53269   0.00656   0.00006   0.04660   0.04916   2.58185
   D15       -2.39383  -0.00407  -0.00014  -0.02264  -0.02249  -2.41631
   D16        0.06928   0.00672  -0.00010   0.03295   0.03210   0.10137
   D17       -0.61670   0.02093  -0.00044   0.14978   0.15366  -0.46304
   D18        2.48596   0.01066  -0.00033   0.08441   0.08565   2.57161
   D19        2.44135   0.01744  -0.00024   0.12727   0.13021   2.57155
   D20       -0.73919   0.00717  -0.00012   0.06190   0.06220  -0.67698
   D21        2.05773   0.03094  -0.00027   0.16733   0.16449   2.22222
   D22       -1.09531   0.01515  -0.00022   0.09239   0.09090  -1.00441
   D23        0.28179  -0.00874  -0.00001  -0.08011  -0.08231   0.19949
   D24       -2.82036   0.00128  -0.00012  -0.01527  -0.01683  -2.83719
   D25        0.81151  -0.03889   0.00021  -0.23208  -0.22978   0.58173
   D26       -2.29064  -0.02887   0.00009  -0.16724  -0.16431  -2.45495
   D27       -2.31817  -0.02251   0.00015  -0.15417  -0.15413  -2.47229
   D28        0.86286  -0.01248   0.00003  -0.08934  -0.08866   0.77421
         Item               Value     Threshold  Converged?
 Maximum Force            0.059140     0.000450     NO 
 RMS     Force            0.020836     0.000300     NO 
 Maximum Displacement     0.299095     0.001800     NO 
 RMS     Displacement     0.084493     0.001200     NO 
 GradGradGradGradGradGradGradGradGradGradGradGradGradGradGradGradGradGrad

                    Distance matrix (angstroms):
                    1          2          3          4          5
     1  C    0.000000
     2  C    1.506723   0.000000
     3  C    1.375738   2.484411   0.000000
     4  C    2.499411   1.359410   2.998758   0.000000
     5  C    2.584582   2.160043   2.363173   1.402494   0.000000
     6  C    2.383117   2.805390   1.464669   2.595507   1.415990
     7  H    1.069458   2.208498   2.156209   3.306529   3.575214
     8  H    2.177666   3.425073   1.079925   4.041665   3.316884
     9  H    3.619048   3.035634   3.268072   2.062297   1.092497
    10  H    3.338613   3.841139   2.255616   3.476383   2.195257
    11  H    2.243425   1.083229   3.358810   2.114694   3.108460
    12  H    3.406624   2.199263   3.983678   1.070378   2.203427
                    6          7          8          9         10
     6  C    0.000000
     7  H    3.298348   0.000000
     8  H    2.224355   2.680290   0.000000
     9  H    2.121015   4.638346   4.090009   0.000000
    10  H    1.063859   4.147093   2.708009   2.570443   0.000000
    11  H    3.828360   2.660748   4.162389   3.825178   4.880314
    12  H    3.453100   4.057538   5.049046   2.582675   4.191419
                   11         12
    11  H    0.000000
    12  H    2.698285   0.000000
 Framework group  C1[X(C6H6)]
 Deg. of freedom    30
                         Standard orientation:                         
 ---------------------------------------------------------------------
 Center     Atomic      Atomic             Coordinates (Angstroms)
 Number     Number       Type             X           Y           Z
 ---------------------------------------------------------------------
      1          6           0        0.454824    1.268859   -0.140878
      2          6           0       -0.979551    0.923972    0.165447
      3          6           0        1.432352    0.331600    0.101279
      4          6           0       -1.489842   -0.301230   -0.128624
      5          6           0       -0.403166   -1.156839    0.103878
      6          6           0        0.994534   -1.051929   -0.097259
      7          1           0        0.631669    2.173663   -0.682908
      8          1           0        2.408819    0.556113    0.504201
      9          1           0       -0.726652   -2.067856    0.612754
     10          1           0        1.606368   -1.850177   -0.444039
     11          1           0       -1.602556    1.655310    0.665843
     12          1           0       -2.372557   -0.553648   -0.678904
 ---------------------------------------------------------------------
 Rotational constants (GHZ):           6.2733664           5.0506854           2.9056381
    66 basis functions,   108 primitive gaussians,    66 cartesian basis functions
    21 alpha electrons       21 beta electrons
       nuclear repulsion energy       202.5674601483 Hartrees.
 NAtoms=   12 NActive=   12 NUniq=   12 SFac= 1.00D+00 NAtFMM=   60 NAOKFM=F Big=F
 Initial guess from the checkpoint file:  "/Users/jorge/g16-scratch/Gau-6969.chk"
 B after Tr=     0.000000   -0.000000    0.000000
         Rot=    0.999894   -0.002111    0.001583   -0.014310 Ang=  -1.67 deg.
 ExpMin= 1.83D-01 ExpMax= 1.72D+02 ExpMxC= 1.72D+02 IAcc=2 IRadAn=         4 AccDes= 0.00D+00
 Harris functional with IExCor=  205 and IRadAn=       4 diagonalized for initial guess.
 HarFok:  IExCor=  205 AccDes= 0.00D+00 IRadAn=         4 IDoV= 1 UseB2=F ITyADJ=14
 ICtDFT=  3500011 ScaDFX=  1.000000  1.000000  1.000000  1.000000
 FoFCou: FMM=F IPFlag=           0 FMFlag=      100000 FMFlg1=           0
         NFxFlg=           0 DoJE=T BraDBF=F KetDBF=T FulRan=T
         wScrn=  0.000000 ICntrl=       500 IOpCl=  0 I1Cent=   200000004 NGrid=           0
         NMat0=    1 NMatS0=      1 NMatT0=    0 NMatD0=    1 NMtDS0=    0 NMtDT0=    0
 Petite list used in FoFCou.
 SCF Done:  E(RHF) =  -229.209955778     A.U. after   17 cycles
            NFock= 17  Conv=0.41D-08     -V/T= 2.0022
 Calling FoFJK, ICntrl=      2127 FMM=F ISym2X=0 I1Cent= 0 IOpClX= 0 NMat=1 NMatS=1 NMatT=0.

 GradGradGradGradGradGradGradGradGradGradGradGradGradGradGradGradGradGrad
 Using GEDIIS/GDIIS optimizer.
 FormGI is forming the generalized inverse of G from B-inverse, IUseBI=4.
 Internal  Forces:  Max     0.047462353 RMS     0.017414172
 Step number   5 out of a maximum of   72
 All quantities printed in internal units (Hartrees-Bohrs-Radians)
 Mixed Optimization -- RFO/linear search
 Trust test= 1.21D+00 RLast= 7.37D-01 DXMaxT set to 8.49D-01
 ITU=  1  0  0  1  0
 Use linear search instead of GDIIS.
     Eigenvalues ---    0.01308   0.02094   0.02822   0.03565   0.03675
     Eigenvalues ---    0.04264   0.05423   0.06559   0.07395   0.11818
     Eigenvalues ---    0.13308   0.15209   0.15645   0.15856   0.15986
     Eigenvalues ---    0.18154   0.20980   0.22247   0.40466   0.42436
     Eigenvalues ---    0.42473   0.42477   0.42477   0.43243   0.44391
     Eigenvalues ---    0.53649   0.61540   0.87310   1.83138   1.88951
 Quartic linear search produced a step of  1.72472.
 Iteration  1 RMS(Cart)=  0.12856206 RMS(Int)=  0.09756631
 Iteration  2 RMS(Cart)=  0.08890143 RMS(Int)=  0.03554955
 Iteration  3 RMS(Cart)=  0.02469232 RMS(Int)=  0.02698915
 Iteration  4 RMS(Cart)=  0.00150506 RMS(Int)=  0.02696788
 Iteration  5 RMS(Cart)=  0.00013674 RMS(Int)=  0.02696774
 Iteration  6 RMS(Cart)=  0.00001409 RMS(Int)=  0.02696774
 Iteration  7 RMS(Cart)=  0.00000147 RMS(Int)=  0.02696774
 Iteration  8 RMS(Cart)=  0.00000015 RMS(Int)=  0.02696774
 Variable       Old X    -DE/DX   Delta X   Delta X   Delta X     New X
                                 (Linear)    (Quad)   (Total)
    R1        2.84729  -0.03977  -0.09552  -0.06197  -0.16096   2.68633
    R2        2.59977  -0.00252  -0.04371  -0.00345  -0.04420   2.55557
    R3        2.02098   0.00273   0.00053   0.01078   0.01130   2.03229
    R4        2.56891  -0.00500  -0.05329  -0.00365   0.01011   2.57902
    R5        4.08189   0.04746   0.40741   0.15108   0.47723   4.55912
    R6        2.04701  -0.00210   0.01111  -0.01764  -0.00653   2.04047
    R7        2.76782  -0.01978  -0.06462  -0.05209  -0.10964   2.65818
    R8        2.04076  -0.00388  -0.03640   0.00412  -0.03228   2.00848
    R9        2.65033  -0.00007  -0.04129  -0.00291   0.01988   2.67021
   R10        2.02272  -0.00185  -0.05902   0.02723  -0.03179   1.99093
   R11        2.67583  -0.03981  -0.14151  -0.04626  -0.18400   2.49183
   R12        2.06452  -0.00235   0.01405  -0.02091  -0.00686   2.05766
   R13        2.01040   0.00339   0.02264  -0.00005   0.02259   2.03299
    A1        2.07682   0.00415   0.09106  -0.02757   0.02537   2.10219
    A2        2.04218  -0.00288  -0.09786   0.05752  -0.02390   2.01828
    A3        2.15089  -0.00267  -0.01001  -0.02113  -0.01561   2.13528
    A4        2.11726  -0.00508  -0.08137   0.07117  -0.06604   2.05123
    A5        1.53147   0.00013  -0.01140   0.00836  -0.00792   1.52355
    A6        2.07933  -0.00625  -0.04762  -0.01477  -0.06769   2.01164
    A7        2.08579   0.01095   0.12762  -0.05951   0.10404   2.18983
    A8        2.52702   0.01211   0.10108   0.07598   0.16925   2.69627
    A9        1.99027   0.00358   0.07572  -0.00855   0.05634   2.04661
   A10        2.17307  -0.00445  -0.06863   0.01003  -0.05626   2.11681
   A11        2.11441   0.00131  -0.01049   0.01272   0.00520   2.11962
   A12        2.25663  -0.01824  -0.12841  -0.09465  -0.20677   2.04986
   A13        2.18993  -0.01586  -0.15092  -0.05796  -0.22634   1.96359
   A14        1.76814  -0.02072  -0.12100  -0.08393  -0.19148   1.57666
   A15        2.36173   0.01919   0.13096   0.11346   0.21134   2.57307
   A16        2.34069  -0.02571  -0.17482  -0.02808  -0.25769   2.08301
   A17        1.93533   0.01579   0.12012  -0.01539   0.14348   2.07882
   A18        2.00448   0.00881   0.05017   0.03711   0.07824   2.08273
   A19        1.92388   0.02175   0.16117   0.04597   0.19504   2.11891
   A20        2.19080  -0.01097  -0.04640  -0.05300  -0.09308   2.09772
   A21        2.16324  -0.01135  -0.12258   0.01292  -0.10902   2.05422
    D1       -0.72146   0.03548   0.34953   0.17098   0.53656  -0.18489
    D2       -0.34732   0.01280   0.18250  -0.03186   0.13073  -0.21659
    D3        2.37693   0.02546   0.27741   0.08560   0.33170   2.70863
    D4        2.25135   0.02639   0.20889   0.22443   0.46161   2.71295
    D5        2.62548   0.00372   0.04187   0.02159   0.05578   2.68125
    D6       -0.93346   0.01638   0.13678   0.13904   0.25675  -0.67671
    D7        0.57443  -0.01861  -0.31958   0.11673  -0.19873   0.37570
    D8       -2.45602  -0.02318  -0.28134  -0.02856  -0.29153  -2.74755
    D9       -2.38725  -0.00897  -0.16529   0.05184  -0.11818  -2.50543
   D10        0.86549  -0.01354  -0.12705  -0.09346  -0.21098   0.65451
   D11       -2.23086  -0.01787  -0.15916  -0.12093  -0.34303  -2.57389
   D12        0.95409  -0.00740  -0.08666  -0.03633  -0.11025   0.84384
   D13        0.06416  -0.00253  -0.00935  -0.04432  -0.02737   0.03679
   D14        2.58185   0.00921   0.08479   0.06893   0.19144   2.77329
   D15       -2.41631  -0.00868  -0.03878  -0.16024  -0.22089  -2.63720
   D16        0.10137   0.00306   0.05536  -0.04699  -0.00208   0.09930
   D17       -0.46304   0.01109   0.26501  -0.16563   0.12855  -0.33449
   D18        2.57161   0.00486   0.14772  -0.10422   0.06351   2.63511
   D19        2.57155   0.01508   0.22457  -0.02588   0.21718   2.78873
   D20       -0.67698   0.00884   0.10728   0.03553   0.15213  -0.52485
   D21        2.22222   0.03251   0.28370   0.17289   0.42356   2.64578
   D22       -1.00441   0.01580   0.15677   0.07388   0.21175  -0.79266
   D23        0.19949  -0.00384  -0.14196   0.11158  -0.05325   0.14623
   D24       -2.83719   0.00230  -0.02903   0.05625   0.00969  -2.82750
   D25        0.58173  -0.03693  -0.39631  -0.12180  -0.48717   0.09457
   D26       -2.45495  -0.03080  -0.28338  -0.17713  -0.42422  -2.87917
   D27       -2.47229  -0.01990  -0.26583  -0.01782  -0.27721  -2.74951
   D28        0.77421  -0.01376  -0.15291  -0.07315  -0.21427   0.55994
         Item               Value     Threshold  Converged?
 Maximum Force            0.047462     0.000450     NO 
 RMS     Force            0.017414     0.000300     NO 
 Maximum Displacement     0.750289     0.001800     NO 
 RMS     Displacement     0.210681     0.001200     NO 
 GradGradGradGradGradGradGradGradGradGradGradGradGradGradGradGradGradGrad

                    Distance matrix (angstroms):
                    1          2          3          4          5
     1  C    0.000000
     2  C    1.421546   0.000000
     3  C    1.352350   2.407898   0.000000
     4  C    2.382565   1.364761   2.746702   0.000000
     5  C    2.741782   2.412583   2.377069   1.413012   0.000000
     6  C    2.355893   2.756200   1.406650   2.358328   1.318621
     7  H    1.075440   2.121409   2.131088   3.298140   3.751994
     8  H    2.109802   3.357262   1.062844   3.783755   3.319216
     9  H    3.815823   3.381377   3.336333   2.163129   1.088869
    10  H    3.294674   3.802383   2.158247   3.316100   2.053020
    11  H    2.120530   1.079773   3.312434   2.176840   3.418833
    12  H    3.276847   2.073184   3.732916   1.053554   2.060639
                    6          7          8          9         10
     6  C    0.000000
     7  H    3.291210   0.000000
     8  H    2.160597   2.547458   0.000000
     9  H    2.081125   4.838149   4.172035   0.000000
    10  H    1.075812   4.114011   2.547177   2.410063   0.000000
    11  H    3.814893   2.434895   4.144126   4.306652   4.870459
    12  H    3.209456   4.063269   4.786965   2.460893   4.040461
                   11         12
    11  H    0.000000
    12  H    2.586469   0.000000
 Framework group  C1[X(C6H6)]
 Deg. of freedom    30
                         Standard orientation:                         
 ---------------------------------------------------------------------
 Center     Atomic      Atomic             Coordinates (Angstroms)
 Number     Number       Type             X           Y           Z
 ---------------------------------------------------------------------
      1          6           0       -1.181424    0.685306   -0.074994
      2          6           0       -1.194109   -0.733271    0.015954
      3          6           0       -0.033680    1.374109    0.117579
      4          6           0        0.010256   -1.371986    0.080137
      5          6           0        1.216512   -0.642947   -0.020120
      6          6           0        1.174362    0.674530   -0.055300
      7          1           0       -2.051192    1.130600   -0.524202
      8          1           0       -0.045640    2.397428    0.404479
      9          1           0        2.156956   -1.140533    0.211416
     10          1           0        2.059656    1.194771   -0.376198
     11          1           0       -2.149245   -1.170408    0.266025
     12          1           0        0.077967   -2.326309   -0.361062
 ---------------------------------------------------------------------
 Rotational constants (GHZ):           5.9039815           5.7928741           2.9645899
    66 basis functions,   108 primitive gaussians,    66 cartesian basis functions
    21 alpha electrons       21 beta electrons
       nuclear repulsion energy       206.3484118859 Hartrees.
 NAtoms=   12 NActive=   12 NUniq=   12 SFac= 1.00D+00 NAtFMM=   60 NAOKFM=F Big=F
 Initial guess from the checkpoint file:  "/Users/jorge/g16-scratch/Gau-6969.chk"
 B after Tr=    -0.000000    0.000000   -0.000000
         Rot=    0.775932   -0.003248   -0.000363   -0.630808 Ang= -78.22 deg.
 ExpMin= 1.83D-01 ExpMax= 1.72D+02 ExpMxC= 1.72D+02 IAcc=2 IRadAn=         4 AccDes= 0.00D+00
 Harris functional with IExCor=  205 and IRadAn=       4 diagonalized for initial guess.
 HarFok:  IExCor=  205 AccDes= 0.00D+00 IRadAn=         4 IDoV= 1 UseB2=F ITyADJ=14
 ICtDFT=  3500011 ScaDFX=  1.000000  1.000000  1.000000  1.000000
 FoFCou: FMM=F IPFlag=           0 FMFlag=      100000 FMFlg1=           0
         NFxFlg=           0 DoJE=T BraDBF=F KetDBF=T FulRan=T
         wScrn=  0.000000 ICntrl=       500 IOpCl=  0 I1Cent=   200000004 NGrid=           0
         NMat0=    1 NMatS0=      1 NMatT0=    0 NMatD0=    1 NMtDS0=    0 NMtDT0=    0
 Petite list used in FoFCou.
 SCF Done:  E(RHF) =  -229.344254031     A.U. after   16 cycles
            NFock= 16  Conv=0.47D-08     -V/T= 2.0004
 Calling FoFJK, ICntrl=      2127 FMM=F ISym2X=0 I1Cent= 0 IOpClX= 0 NMat=1 NMatS=1 NMatT=0.

 GradGradGradGradGradGradGradGradGradGradGradGradGradGradGradGradGradGrad
 Using GEDIIS/GDIIS optimizer.
 FormGI is forming the generalized inverse of G from B-inverse, IUseBI=4.
 Internal  Forces:  Max     0.062902726 RMS     0.012782101
 Step number   6 out of a maximum of   72
 All quantities printed in internal units (Hartrees-Bohrs-Radians)
 Mixed Optimization -- RFO/linear search
 Trust test= 7.38D-01 RLast= 1.63D+00 DXMaxT set to 1.43D+00
 ITU=  1  1  0  0  1  0
 Use linear search instead of GDIIS.
     Eigenvalues ---    0.01297   0.02190   0.02670   0.03241   0.04068
     Eigenvalues ---    0.04363   0.05505   0.06476   0.08554   0.14022
     Eigenvalues ---    0.14075   0.14586   0.15419   0.15695   0.16033
     Eigenvalues ---    0.17539   0.21769   0.23605   0.39951   0.42411
     Eigenvalues ---    0.42475   0.42477   0.42498   0.43111   0.44379
     Eigenvalues ---    0.54126   0.64560   0.78420   1.68913   1.99733
 Quartic linear search produced a step of  0.09209.
 Iteration  1 RMS(Cart)=  0.06919246 RMS(Int)=  0.00407575
 Iteration  2 RMS(Cart)=  0.00340768 RMS(Int)=  0.00268225
 Iteration  3 RMS(Cart)=  0.00000747 RMS(Int)=  0.00268223
 Iteration  4 RMS(Cart)=  0.00000004 RMS(Int)=  0.00268223
 Variable       Old X    -DE/DX   Delta X   Delta X   Delta X     New X
                                 (Linear)    (Quad)   (Total)
    R1        2.68633   0.00040  -0.01482   0.00170  -0.01350   2.67284
    R2        2.55557   0.02198  -0.00407   0.01689   0.01242   2.56799
    R3        2.03229   0.00006   0.00104  -0.00296  -0.00192   2.03037
    R4        2.57902   0.01782   0.00093   0.00864   0.01673   2.59575
    R5        4.55912  -0.00005   0.04395  -0.03456   0.00135   4.56047
    R6        2.04047  -0.00535  -0.00060  -0.01168  -0.01228   2.02819
    R7        2.65818  -0.00406  -0.01010  -0.00335  -0.01345   2.64473
    R8        2.00848   0.00751  -0.00297   0.01171   0.00874   2.01722
    R9        2.67021   0.00858   0.00183   0.00693   0.01589   2.68609
   R10        1.99093   0.02013  -0.00293   0.03614   0.03321   2.02414
   R11        2.49183   0.06290  -0.01694   0.09004   0.07347   2.56530
   R12        2.05766  -0.01083  -0.00063  -0.02321  -0.02384   2.03382
   R13        2.03299   0.00005   0.00208  -0.00035   0.00173   2.03472
    A1        2.10219   0.00091   0.00234  -0.00224  -0.00434   2.09785
    A2        2.01828   0.00619  -0.00220   0.02869   0.02834   2.04662
    A3        2.13528  -0.00624  -0.00144  -0.02092  -0.02004   2.11524
    A4        2.05123   0.01783  -0.00608   0.04202   0.02996   2.08118
    A5        1.52355   0.00969  -0.00073   0.02136   0.01991   1.54345
    A6        2.01164  -0.00363  -0.00623   0.01678   0.00932   2.02097
    A7        2.18983  -0.01297   0.00958  -0.04239  -0.02969   2.16015
    A8        2.69627  -0.00549   0.01559  -0.02267  -0.00931   2.68696
    A9        2.04661   0.00490   0.00519   0.03815   0.04029   2.08690
   A10        2.11681  -0.00048  -0.00518  -0.01164  -0.01573   2.10108
   A11        2.11962  -0.00448   0.00048  -0.02713  -0.02550   2.09412
   A12        2.04986   0.00932  -0.01904   0.04020   0.01995   2.06981
   A13        1.96359   0.01757  -0.02084   0.08581   0.06270   2.02629
   A14        1.57666  -0.00074  -0.01763   0.01751  -0.00001   1.57665
   A15        2.57307   0.00303   0.01946   0.00116   0.01673   2.58980
   A16        2.08301   0.00922  -0.02373   0.03887   0.00971   2.09272
   A17        2.07882  -0.00639   0.01321  -0.01845  -0.00177   2.07705
   A18        2.08273  -0.00065   0.00720   0.00149   0.00643   2.08916
   A19        2.11891  -0.01088   0.01796  -0.03497  -0.01979   2.09912
   A20        2.09772  -0.00123  -0.00857  -0.01084  -0.01783   2.07989
   A21        2.05422   0.01206  -0.01004   0.04904   0.04004   2.09426
    D1       -0.18489   0.00457   0.04941   0.03206   0.08096  -0.10394
    D2       -0.21659   0.00737   0.01204   0.06647   0.07625  -0.14035
    D3        2.70863   0.00740   0.03055   0.09078   0.11912   2.82775
    D4        2.71295   0.00745   0.04251   0.05339   0.09638   2.80933
    D5        2.68125   0.01025   0.00514   0.08780   0.09167   2.77292
    D6       -0.67671   0.01028   0.02364   0.11211   0.13454  -0.54217
    D7        0.37570  -0.01135  -0.01830  -0.12063  -0.14048   0.23522
    D8       -2.74755  -0.00766  -0.02685  -0.08272  -0.10877  -2.85632
    D9       -2.50543  -0.01628  -0.01088  -0.15069  -0.16351  -2.66893
   D10        0.65451  -0.01259  -0.01943  -0.11278  -0.13180   0.52271
   D11       -2.57389  -0.01583  -0.03159  -0.11216  -0.14817  -2.72207
   D12        0.84384  -0.02113  -0.01015  -0.18866  -0.19667   0.64717
   D13        0.03679  -0.00055  -0.00252   0.00138   0.00018   0.03698
   D14        2.77329   0.00495   0.01763   0.08152   0.10305   2.87634
   D15       -2.63720  -0.00555  -0.02034  -0.08245  -0.10563  -2.74283
   D16        0.09930  -0.00005  -0.00019  -0.00230  -0.00276   0.09653
   D17       -0.33449   0.01288   0.01184   0.12844   0.14271  -0.19178
   D18        2.63511   0.01373   0.00585   0.15562   0.16388   2.79900
   D19        2.78873   0.00922   0.02000   0.09064   0.11124   2.89997
   D20       -0.52485   0.01008   0.01401   0.11783   0.13241  -0.39245
   D21        2.64578   0.01203   0.03900   0.09245   0.13133   2.77711
   D22       -0.79266   0.02009   0.01950   0.17464   0.19269  -0.59997
   D23        0.14623  -0.00574  -0.00490  -0.06822  -0.07351   0.07273
   D24       -2.82750  -0.00539   0.00089  -0.08931  -0.08930  -2.91680
   D25        0.09457  -0.00315  -0.04486  -0.03638  -0.07836   0.01621
   D26       -2.87917  -0.00279  -0.03906  -0.05747  -0.09416  -2.97332
   D27       -2.74951  -0.01024  -0.02553  -0.11536  -0.13875  -2.88826
   D28        0.55994  -0.00989  -0.01973  -0.13645  -0.15454   0.40540
         Item               Value     Threshold  Converged?
 Maximum Force            0.062903     0.000450     NO 
 RMS     Force            0.012782     0.000300     NO 
 Maximum Displacement     0.258373     0.001800     NO 
 RMS     Displacement     0.068810     0.001200     NO 
 GradGradGradGradGradGradGradGradGradGradGradGradGradGradGradGradGradGrad

                    Distance matrix (angstroms):
                    1          2          3          4          5
     1  C    0.000000
     2  C    1.414405   0.000000
     3  C    1.358924   2.404323   0.000000
     4  C    2.405321   1.373612   2.771803   0.000000
     5  C    2.763677   2.413299   2.391002   1.421419   0.000000
     6  C    2.383794   2.775820   1.399530   2.405663   1.357500
     7  H    1.074423   2.132406   2.124502   3.340193   3.797101
     8  H    2.110339   3.363967   1.067468   3.823536   3.344365
     9  H    3.832572   3.377280   3.356063   2.159251   1.076252
    10  H    3.332845   3.837805   2.141708   3.381772   2.112694
    11  H    2.115068   1.073274   3.324341   2.162770   3.410276
    12  H    3.342097   2.107687   3.802970   1.071129   2.123035
                    6          7          8          9         10
     6  C    0.000000
     7  H    3.333190   0.000000
     8  H    2.142759   2.500919   0.000000
     9  H    2.109233   4.872423   4.213773   0.000000
    10  H    1.076727   4.177135   2.484581   2.457901   0.000000
    11  H    3.834797   2.428716   4.176104   4.295366   4.901781
    12  H    3.320699   4.163700   4.865080   2.479204   4.193785
                   11         12
    11  H    0.000000
    12  H    2.550640   0.000000
 Framework group  C1[X(C6H6)]
 Deg. of freedom    30
                         Standard orientation:                         
 ---------------------------------------------------------------------
 Center     Atomic      Atomic             Coordinates (Angstroms)
 Number     Number       Type             X           Y           Z
 ---------------------------------------------------------------------
      1          6           0       -0.991836    0.956597   -0.047138
      2          6           0       -1.332917   -0.414878    0.009985
      3          6           0        0.305025    1.344042    0.074158
      4          6           0       -0.331655   -1.353633    0.064973
      5          6           0        1.023569   -0.934311   -0.024307
      6          6           0        1.323480    0.389639   -0.028560
      7          1           0       -1.745263    1.636874   -0.399212
      8          1           0        0.546647    2.360727    0.292003
      9          1           0        1.805038   -1.657582    0.132224
     10          1           0        2.325891    0.713733   -0.250991
     11          1           0       -2.365285   -0.631503    0.207993
     12          1           0       -0.541015   -2.346989   -0.276682
 ---------------------------------------------------------------------
 Rotational constants (GHZ):           5.7994505           5.7541567           2.9085747
    66 basis functions,   108 primitive gaussians,    66 cartesian basis functions
    21 alpha electrons       21 beta electrons
       nuclear repulsion energy       205.0126805037 Hartrees.
 NAtoms=   12 NActive=   12 NUniq=   12 SFac= 1.00D+00 NAtFMM=   60 NAOKFM=F Big=F
 Initial guess from the checkpoint file:  "/Users/jorge/g16-scratch/Gau-6969.chk"
 B after Tr=     0.000000   -0.000000    0.000000
         Rot=    0.992445   -0.000453   -0.000416    0.122692 Ang= -14.10 deg.
 ExpMin= 1.83D-01 ExpMax= 1.72D+02 ExpMxC= 1.72D+02 IAcc=2 IRadAn=         4 AccDes= 0.00D+00
 Harris functional with IExCor=  205 and IRadAn=       4 diagonalized for initial guess.
 HarFok:  IExCor=  205 AccDes= 0.00D+00 IRadAn=         4 IDoV= 1 UseB2=F ITyADJ=14
 ICtDFT=  3500011 ScaDFX=  1.000000  1.000000  1.000000  1.000000
 FoFCou: FMM=F IPFlag=           0 FMFlag=      100000 FMFlg1=           0
         NFxFlg=           0 DoJE=T BraDBF=F KetDBF=T FulRan=T
         wScrn=  0.000000 ICntrl=       500 IOpCl=  0 I1Cent=   200000004 NGrid=           0
         NMat0=    1 NMatS0=      1 NMatT0=    0 NMatD0=    1 NMtDS0=    0 NMtDT0=    0
 Petite list used in FoFCou.
 SCF Done:  E(RHF) =  -229.381091447     A.U. after   13 cycles
            NFock= 13  Conv=0.87D-08     -V/T= 2.0015
 Calling FoFJK, ICntrl=      2127 FMM=F ISym2X=0 I1Cent= 0 IOpClX= 0 NMat=1 NMatS=1 NMatT=0.

 GradGradGradGradGradGradGradGradGradGradGradGradGradGradGradGradGradGrad
 Using GEDIIS/GDIIS optimizer.
 FormGI is forming the generalized inverse of G from B-inverse, IUseBI=4.
 Internal  Forces:  Max     0.017113821 RMS     0.006558065
 Step number   7 out of a maximum of   72
 All quantities printed in internal units (Hartrees-Bohrs-Radians)
 Mixed Optimization -- RFO/linear search
 Trust test= 1.13D+00 RLast= 6.67D-01 DXMaxT set to 2.00D+00
 ITU=  1  1  1  0  0  1  0
 Use linear search instead of GDIIS.
     Eigenvalues ---    0.01250   0.02073   0.02264   0.03230   0.03445
     Eigenvalues ---    0.04222   0.05594   0.06379   0.07680   0.13850
     Eigenvalues ---    0.14758   0.14942   0.15665   0.15765   0.16026
     Eigenvalues ---    0.17526   0.22145   0.23868   0.40077   0.42395
     Eigenvalues ---    0.42461   0.42477   0.42584   0.43124   0.44503
     Eigenvalues ---    0.54950   0.63356   0.76992   1.69909   1.99393
 Quartic linear search produced a step of  1.69592.
 Iteration  1 RMS(Cart)=  0.09412313 RMS(Int)=  0.07303167
 Iteration  2 RMS(Cart)=  0.04594291 RMS(Int)=  0.01032350
 Iteration  3 RMS(Cart)=  0.00331119 RMS(Int)=  0.00841262
 Iteration  4 RMS(Cart)=  0.00010024 RMS(Int)=  0.00841194
 Iteration  5 RMS(Cart)=  0.00000217 RMS(Int)=  0.00841194
 Iteration  6 RMS(Cart)=  0.00000005 RMS(Int)=  0.00841194
 Variable       Old X    -DE/DX   Delta X   Delta X   Delta X     New X
                                 (Linear)    (Quad)   (Total)
    R1        2.67284  -0.00679  -0.02289  -0.05513  -0.07871   2.59412
    R2        2.56799   0.01662   0.02107  -0.02110  -0.00734   2.56066
    R3        2.03037  -0.00041  -0.00326  -0.00068  -0.00394   2.02642
    R4        2.59575   0.00674   0.02837  -0.02213   0.01982   2.61557
    R5        4.56047  -0.00213   0.00229   0.04347   0.03818   4.59865
    R6        2.02819  -0.00034  -0.02083   0.01016  -0.01067   2.01753
    R7        2.64473  -0.00225  -0.02282  -0.01214  -0.04185   2.60287
    R8        2.01722   0.00427   0.01482  -0.00107   0.01375   2.03097
[...]
      6          6           0        1.382958    0.068148    0.000078
      7          1           0       -1.331797    2.064444   -0.000311
      8          1           0        1.122164    2.185484   -0.000140
      9          1           0        1.331607   -2.064596   -0.000429
     10          1           0        2.453795    0.120772    0.000423
     11          1           0       -2.453685   -0.121305    0.000180
     12          1           0       -1.122159   -2.185282    0.000181
 ---------------------------------------------------------------------
 Rotational constants (GHZ):           5.7918986           5.7908434           2.8956855
    66 basis functions,   108 primitive gaussians,    66 cartesian basis functions
    21 alpha electrons       21 beta electrons
       nuclear repulsion energy       205.1097597951 Hartrees.
 NAtoms=   12 NActive=   12 NUniq=   12 SFac= 1.00D+00 NAtFMM=   60 NAOKFM=F Big=F
 Initial guess from the checkpoint file:  "/Users/jorge/g16-scratch/Gau-6969.chk"
 B after Tr=     0.000000   -0.000000    0.000000
         Rot=    0.982986   -0.000000    0.000000   -0.183682 Ang= -21.17 deg.
 SCF Done:  E(RHF) =  -229.419445216     A.U. after    9 cycles
            NFock=  9  Conv=0.47D-08     -V/T= 2.0017
 Calling FoFJK, ICntrl=      2127 FMM=F ISym2X=0 I1Cent= 0 IOpClX= 0 NMat=1 NMatS=1 NMatT=0.

 GradGradGradGradGradGradGradGradGradGradGradGradGradGradGradGradGradGrad
 Using GEDIIS/GDIIS optimizer.
 FormGI is forming the generalized inverse of G from B-inverse, IUseBI=4.
 Internal  Forces:  Max     0.000308907 RMS     0.000057650
 Step number  17 out of a maximum of   72
 All quantities printed in internal units (Hartrees-Bohrs-Radians)
 Mixed Optimization -- En-DIIS/RFO-DIIS
 Swapping is turned off.
 Trust test= 1.75D+00 RLast= 2.93D-03 DXMaxT set to 3.00D+00
 ITU=  0  1  1  1  1  1  1  1  1  1  1  1  1  0  0  1  0
     Eigenvalues ---    0.01278   0.02063   0.02502   0.02893   0.03226
     Eigenvalues ---    0.04184   0.05010   0.05411   0.13006   0.13541
     Eigenvalues ---    0.15206   0.15537   0.16040   0.16144   0.16254
     Eigenvalues ---    0.18375   0.22046   0.23486   0.29538   0.42246
     Eigenvalues ---    0.42390   0.42547   0.42753   0.42917   0.43617
     Eigenvalues ---    0.46475   0.57061   0.61817   0.70748   0.87112
 En-DIIS/RFO-DIIS/Sim-DIIS IScMMF=       -3 using points:    17   16   15   14   13   12
 RFO step:  Lambda=-3.62628987D-07.
 DIIS inversion failure, remove point   6.
 DIIS inversion failure, remove point   5.
 DIIS inversion failure, remove point   4.
 RFO-DIIS uses    3 points instead of    6
 DidBck=F Rises=F RFO-DIIS coefs:    1.65626   -0.89898    0.24273    0.00000    0.00000
                  RFO-DIIS coefs:    0.00000
 Iteration  1 RMS(Cart)=  0.00018466 RMS(Int)=  0.00000008
 Iteration  2 RMS(Cart)=  0.00000003 RMS(Int)=  0.00000008
 Variable       Old X    -DE/DX   Delta X   Delta X   Delta X     New X
                                 (Linear)    (Quad)   (Total)
    R1        2.61622   0.00009   0.00023  -0.00000   0.00022   2.61644
    R2        2.61713  -0.00031  -0.00039  -0.00013  -0.00052   2.61661
    R3        2.02601  -0.00001   0.00001  -0.00002  -0.00001   2.02599
    R4        2.61601   0.00023   0.00019   0.00022   0.00041   2.61642
    R5        4.53191  -0.00003   0.00010  -0.00009   0.00001   4.53192
    R6        2.02606  -0.00002  -0.00005   0.00000  -0.00005   2.02601
    R7        2.61643   0.00001   0.00018  -0.00017   0.00001   2.61643
    R8        2.02593   0.00002   0.00002   0.00002   0.00004   2.02597
    R9        2.61681  -0.00017  -0.00012  -0.00018  -0.00029   2.61651
   R10        2.02594   0.00003   0.00003   0.00000   0.00003   2.02597
   R11        2.61650  -0.00001  -0.00022   0.00009  -0.00013   2.61637
   R12        2.02604  -0.00003  -0.00002  -0.00000  -0.00002   2.02602
   R13        2.02603  -0.00001   0.00000  -0.00003  -0.00002   2.02601
    A1        2.09431   0.00001  -0.00002   0.00010   0.00008   2.09439
    A2        2.09451   0.00000  -0.00008  -0.00003  -0.00011   2.09440
    A3        2.09437  -0.00001   0.00010  -0.00007   0.00003   2.09440
    A4        2.09455  -0.00003  -0.00012  -0.00006  -0.00019   2.09436
    A5        1.57093  -0.00002  -0.00008  -0.00007  -0.00014   1.57078
    A6        2.09459  -0.00001  -0.00005   0.00002  -0.00003   2.09456
    A7        2.09404   0.00004   0.00018   0.00004   0.00022   2.09426
    A8        2.61767   0.00003   0.00013   0.00005   0.00018   2.61784
    A9        2.09428   0.00005   0.00012  -0.00003   0.00008   2.09436
   A10        2.09434  -0.00002  -0.00005   0.00011   0.00006   2.09439
   A11        2.09457  -0.00003  -0.00007  -0.00007  -0.00014   2.09443
   A12        2.09449   0.00002  -0.00007  -0.00003  -0.00010   2.09440
   A13        2.09417   0.00004   0.00004   0.00013   0.00017   2.09434
   A14        1.57079  -0.00004   0.00003  -0.00001   0.00001   1.57080
   A15        2.61793   0.00004  -0.00009   0.00007  -0.00002   2.61791
   A16        2.09424   0.00003   0.00005   0.00008   0.00013   2.09436
   A17        2.09448  -0.00004  -0.00011  -0.00002  -0.00013   2.09435
   A18        2.09447   0.00001   0.00006  -0.00006   0.00000   2.09447
   A19        2.09448   0.00001  -0.00005   0.00001  -0.00004   2.09444
   A20        2.09447  -0.00002  -0.00003  -0.00007  -0.00010   2.09436
   A21        2.09424   0.00001   0.00008   0.00006   0.00014   2.09438
    D1       -0.00013   0.00000   0.00005   0.00009   0.00014   0.00001
    D2       -0.00005  -0.00000   0.00004   0.00008   0.00011   0.00006
    D3        3.14150  -0.00000  -0.00024   0.00017  -0.00006   3.14143
    D4        3.14116   0.00001   0.00034   0.00008   0.00043   3.14159
    D5        3.14124   0.00001   0.00033   0.00007   0.00040  -3.14154
    D6       -0.00039   0.00001   0.00006   0.00016   0.00022  -0.00017
    D7       -0.00006   0.00001  -0.00002  -0.00009  -0.00011  -0.00017
    D8        3.14154   0.00000  -0.00003  -0.00007  -0.00010   3.14144
    D9       -3.14135  -0.00000  -0.00031  -0.00008  -0.00040   3.14144
   D10        0.00024  -0.00001  -0.00032  -0.00006  -0.00038  -0.00014
   D11        3.14141   0.00000   0.00015   0.00007   0.00022  -3.14155
   D12       -0.00022   0.00001   0.00044  -0.00001   0.00043   0.00021
   D13        0.00014  -0.00000  -0.00005  -0.00006  -0.00010   0.00004
   D14       -3.14092  -0.00001  -0.00033  -0.00016  -0.00049  -3.14141
   D15       -3.14138  -0.00000   0.00043  -0.00022   0.00021  -3.14117
   D16        0.00075  -0.00000   0.00014  -0.00033  -0.00018   0.00056
   D17        0.00022  -0.00001  -0.00003   0.00003  -0.00001   0.00021
   D18       -3.14120  -0.00001  -0.00027   0.00004  -0.00022  -3.14142
   D19       -3.14137  -0.00000  -0.00003   0.00001  -0.00002  -3.14139
   D20        0.00040  -0.00001  -0.00026   0.00002  -0.00024   0.00016
   D21       -3.14124  -0.00001  -0.00021  -0.00013  -0.00034  -3.14158
   D22        0.00065  -0.00001  -0.00036  -0.00018  -0.00053   0.00012
   D23       -0.00019   0.00000   0.00004   0.00002   0.00006  -0.00013
   D24        3.14122   0.00001   0.00028   0.00001   0.00028   3.14150
   D25       -0.00020   0.00000   0.00006   0.00004   0.00010  -0.00010
   D26        3.14122   0.00000   0.00029   0.00002   0.00031   3.14153
   D27        3.14109   0.00001   0.00021   0.00008   0.00029   3.14138
   D28       -0.00068   0.00001   0.00044   0.00007   0.00050  -0.00017
         Item               Value     Threshold  Converged?
 Maximum Force            0.000309     0.000450     YES
 RMS     Force            0.000058     0.000300     YES
 Maximum Displacement     0.000639     0.001800     YES
 RMS     Displacement     0.000185     0.001200     YES
 Optimization completed.
    -- Stationary point found.
                           ----------------------------
                           !   Optimized Parameters   !
                           ! (Angstroms and Degrees)  !
 --------------------------                            --------------------------
 ! Name  Definition              Value          Derivative Info.                !
 --------------------------------------------------------------------------------
 ! R1    R(1,2)                  1.3844         -DE/DX =    0.0001              !
 ! R2    R(1,3)                  1.3849         -DE/DX =   -0.0003              !
 ! R3    R(1,7)                  1.0721         -DE/DX =    0.0                 !
 ! R4    R(2,4)                  1.3843         -DE/DX =    0.0002              !
 ! R5    R(2,5)                  2.3982         -DE/DX =    0.0                 !
 ! R6    R(2,11)                 1.0721         -DE/DX =    0.0                 !
 ! R7    R(3,6)                  1.3846         -DE/DX =    0.0                 !
 ! R8    R(3,8)                  1.0721         -DE/DX =    0.0                 !
 ! R9    R(4,5)                  1.3848         -DE/DX =   -0.0002              !
 ! R10   R(4,12)                 1.0721         -DE/DX =    0.0                 !
 ! R11   R(5,6)                  1.3846         -DE/DX =    0.0                 !
 ! R12   R(5,9)                  1.0721         -DE/DX =    0.0                 !
 ! R13   R(6,10)                 1.0721         -DE/DX =    0.0                 !
 ! A1    A(2,1,3)              119.995          -DE/DX =    0.0                 !
 ! A2    A(2,1,7)              120.0063         -DE/DX =    0.0                 !
 ! A3    A(3,1,7)              119.9987         -DE/DX =    0.0                 !
 ! A4    A(1,2,4)              120.009          -DE/DX =    0.0                 !
 ! A5    A(1,2,5)               90.0076         -DE/DX =    0.0                 !
 ! A6    A(1,2,11)             120.0111         -DE/DX =    0.0                 !
 ! A7    A(4,2,11)             119.9799         -DE/DX =    0.0                 !
 ! A8    A(5,2,11)             149.9813         -DE/DX =    0.0                 !
 ! A9    A(1,3,6)              119.9933         -DE/DX =    0.0                 !
 ! A10   A(1,3,8)              119.9967         -DE/DX =    0.0                 !
 ! A11   A(6,3,8)              120.0101         -DE/DX =    0.0                 !
 ! A12   A(2,4,12)             120.0056         -DE/DX =    0.0                 !
 ! A13   A(5,4,12)             119.9871         -DE/DX =    0.0                 !
 ! A14   A(2,5,6)               89.9995         -DE/DX =    0.0                 !
 ! A15   A(2,5,9)              149.9962         -DE/DX =    0.0                 !
 ! A16   A(4,5,6)              119.9909         -DE/DX =    0.0                 !
 ! A17   A(4,5,9)              120.0049         -DE/DX =    0.0                 !
 ! A18   A(6,5,9)              120.0043         -DE/DX =    0.0                 !
 ! A19   A(3,6,5)              120.0047         -DE/DX =    0.0                 !
 ! A20   A(3,6,10)             120.004          -DE/DX =    0.0                 !
 ! A21   A(5,6,10)             119.9913         -DE/DX =    0.0                 !
 ! D1    D(3,1,2,4)             -0.0076         -DE/DX =    0.0                 !
 ! D2    D(3,1,2,5)             -0.0032         -DE/DX =    0.0                 !
 ! D3    D(3,1,2,11)           179.9946         -DE/DX =    0.0                 !
 ! D4    D(7,1,2,4)            179.9755         -DE/DX =    0.0                 !
 ! D5    D(7,1,2,5)           -180.0201         -DE/DX =    0.0                 !
 ! D6    D(7,1,2,11)            -0.0224         -DE/DX =    0.0                 !
 ! D7    D(2,1,3,6)             -0.0032         -DE/DX =    0.0                 !
 ! D8    D(2,1,3,8)            179.9968         -DE/DX =    0.0                 !
 ! D9    D(7,1,3,6)            180.0137         -DE/DX =    0.0                 !
 ! D10   D(7,1,3,8)              0.0137         -DE/DX =    0.0                 !
 ! D11   D(1,2,4,12)          -180.0106         -DE/DX =    0.0                 !
 ! D12   D(11,2,4,12)           -0.0127         -DE/DX =    0.0                 !
 ! D13   D(1,2,5,6)              0.0082         -DE/DX =    0.0                 !
 ! D14   D(1,2,5,9)           -179.9613         -DE/DX =    0.0                 !
 ! D15   D(11,2,5,6)          -179.9878         -DE/DX =    0.0                 !
 ! D16   D(11,2,5,9)             0.0427         -DE/DX =    0.0                 !
 ! D17   D(1,3,6,5)              0.0127         -DE/DX =    0.0                 !
 ! D18   D(1,3,6,10)          -179.9773         -DE/DX =    0.0                 !
 ! D19   D(8,3,6,5)           -179.9873         -DE/DX =    0.0                 !
 ! D20   D(8,3,6,10)             0.0227         -DE/DX =    0.0                 !
 ! D21   D(12,4,5,6)          -179.9799         -DE/DX =    0.0                 !
 ! D22   D(12,4,5,9)             0.0373         -DE/DX =    0.0                 !
 ! D23   D(2,5,6,3)             -0.0111         -DE/DX =    0.0                 !
 ! D24   D(2,5,6,10)           179.9789         -DE/DX =    0.0                 !
 ! D25   D(4,5,6,3)             -0.0114         -DE/DX =    0.0                 !
 ! D26   D(4,5,6,10)           179.9786         -DE/DX =    0.0                 !
 ! D27   D(9,5,6,3)            179.9713         -DE/DX =    0.0                 !
 ! D28   D(9,5,6,10)            -0.0387         -DE/DX =    0.0                 !
 --------------------------------------------------------------------------------
 GradGradGradGradGradGradGradGradGradGradGradGradGradGradGradGradGradGrad

                    Distance matrix (angstroms):
                    1          2          3          4          5
     1  C    0.000000
     2  C    1.384442   0.000000
     3  C    1.384924   2.398280   0.000000
     4  C    2.397937   1.384332   2.769152   0.000000
     5  C    2.769268   2.398186   2.398207   1.384754   0.000000
     6  C    2.398356   2.769175   1.384554   2.398213   1.384591
     7  H    1.072116   2.133232   2.133586   3.369336   3.841385
     8  H    2.133530   3.369589   1.072075   3.841227   3.369615
     9  H    3.841405   3.369572   3.369628   2.133514   1.072136
    10  H    3.369838   3.841305   2.133319   3.369603   2.133220
    11  H    2.133304   1.072142   3.369826   2.132876   3.369479
    12  H    3.369316   2.133096   3.841233   1.072080   2.133281
                    6          7          8          9         10
     6  C    0.000000
     7  H    3.369732   0.000000
     8  H    2.133337   2.456944   0.000000
     9  H    2.133362   4.913521   4.255238   0.000000
    10  H    1.072130   4.255416   2.456884   2.456653   0.000000
    11  H    3.841317   2.456854   4.255346   4.254975   4.913447
    12  H    3.369504   4.254893   4.913307   2.456732   4.255037
                   11         12
    11  H    0.000000
    12  H    2.456209   0.000000
 Framework group  C1[X(C6H6)]
 Deg. of freedom    30
                         Standard orientation:                         
 ---------------------------------------------------------------------
 Center     Atomic      Atomic             Coordinates (Angstroms)
 Number     Number       Type             X           Y           Z
 ---------------------------------------------------------------------
      1          6           0       -0.750662    1.163491   -0.000003
      2          6           0       -1.382859   -0.068177    0.000069
      3          6           0        0.632579    1.231729   -0.000032
      4          6           0       -0.632544   -1.231535   -0.000046
      5          6           0        0.750541   -1.163575   -0.000049
      6          6           0        1.382958    0.068148    0.000078
      7          1           0       -1.331797    2.064444   -0.000311
      8          1           0        1.122164    2.185484   -0.000140
      9          1           0        1.331607   -2.064596   -0.000429
     10          1           0        2.453795    0.120772    0.000423
     11          1           0       -2.453685   -0.121305    0.000180
     12          1           0       -1.122159   -2.185282    0.000181
 ---------------------------------------------------------------------
 Rotational constants (GHZ):           5.7918986           5.7908434           2.8956855

 **********************************************************************

            Population analysis using the SCF density.

 **********************************************************************

 Orbital symmetries:
       Occupied  (A) (A) (A) (A) (A) (A) (A) (A) (A) (A) (A) (A)
                 (A) (A) (A) (A) (A) (A) (A) (A) (A)
       Virtual   (A) (A) (A) (A) (A) (A) (A) (A) (A) (A) (A) (A)
                 (A) (A) (A) (A) (A) (A) (A) (A) (A) (A) (A) (A)
                 (A) (A) (A) (A) (A) (A) (A) (A) (A) (A) (A) (A)
                 (A) (A) (A) (A) (A) (A) (A) (A) (A)
 The electronic state is 1-A.
 Alpha  occ. eigenvalues --  -11.17549 -11.17527 -11.17524 -11.17505 -11.17503
 Alpha  occ. eigenvalues --  -11.17447  -1.15737  -1.01657  -1.01645  -0.82568
 Alpha  occ. eigenvalues --   -0.82558  -0.71991  -0.63948  -0.62493  -0.59284
 Alpha  occ. eigenvalues --   -0.59276  -0.50847  -0.49151  -0.49136  -0.33905
 Alpha  occ. eigenvalues --   -0.33894
 Alpha virt. eigenvalues --    0.15118   0.15130   0.25737   0.32449   0.32453
 Alpha virt. eigenvalues --    0.37202   0.37205   0.37548   0.37566   0.50848
 Alpha virt. eigenvalues --    0.50861   0.52424   0.52438   0.81342   0.83513
 Alpha virt. eigenvalues --    0.87036   0.90684   0.95555   1.00743   1.00768
 Alpha virt. eigenvalues --    1.05369   1.05374   1.08852   1.08868   1.10792
 Alpha virt. eigenvalues --    1.10796   1.13655   1.17877   1.29044   1.31632
 Alpha virt. eigenvalues --    1.31639   1.41503   1.41513   1.42409   1.55808
 Alpha virt. eigenvalues --    1.55820   1.59747   1.72315   1.73306   1.73318
 Alpha virt. eigenvalues --    1.81222   1.81247   2.17256   2.17271   2.77505
          Condensed to atoms (all electrons):
 Mulliken charges:
               1
     1  C   -0.239284
     2  C   -0.239343
     3  C   -0.239320
     4  C   -0.239272
     5  C   -0.239320
     6  C   -0.239312
     7  H    0.239309
     8  H    0.239315
     9  H    0.239309
    10  H    0.239303
    11  H    0.239312
    12  H    0.239302
 Sum of Mulliken charges =  -0.00000
 Mulliken charges with hydrogens summed into heavy atoms:
               1
     1  C    0.000025
     2  C   -0.000032
     3  C   -0.000004
     4  C    0.000030
     5  C   -0.000010
     6  C   -0.000009
 Electronic spatial extent (au):  <R**2>=            453.0467
 Charge=             -0.0000 electrons
 Dipole moment (field-independent basis, Debye):
    X=              0.0000    Y=             -0.0002    Z=             -0.0001  Tot=              0.0002
 1\1\GINC-JORGES-MACBOOK-AIR\FOpt\RHF\3-21G\C6H6\JORGE\17-Jun-2019\0\\#
 t hf/3-21g opt\\benzene\\0,1\C,-1.9757183172,3.1251163471,-0.302742922
 5\C,-0.7002169502,3.6408310494,-0.148427659\C,-2.5226476808,2.32351870
 92,0.6853477134\C,0.0284907227,3.3554856984,0.9934731638\C,-0.51813562
 47,2.5539909036,1.9815767342\C,-1.7936862418,2.0379820132,1.8273077817
 \H,-2.540190201,3.3464553202,-1.1869452079\H,-3.5103791218,1.924190526
 3,0.5659014869\H,0.0461559971,2.3332566219,2.8660696332\H,-2.216779359
 3,1.4171518001,2.592176274\H,-0.2765239557,4.2613477317,-0.9132365217\
 H,1.0162707326,3.7547332791,1.1128395239\\Version=EM64M-G16RevA.03\Sta
 te=1-A\HF=-229.4194452\RMSD=4.732e-09\RMSF=1.174e-04\Dipole=0.0000345,
 0.0000283,0.0000523\Quadrupole=1.3291435,-2.2807082,0.9515647,2.184420
 2,1.203063,-2.5540006\PG=C01 [X(C6H6)]\\@


 Age does not diminish the extreme disappointment of
 having a scoop of ice cream fall from the cone.
 -- Jim Fiebig
 Job cpu time:       0 days  0 hours  1 minutes 22.0 seconds.
 Elapsed time:       0 days  0 hours  0 minutes 22.7 seconds.
 File lengths (MBytes):  RWF=      6 Int=      0 D2E=      0 Chk=      2 Scr=      1
 Normal termination of Gaussian 16 at Mon Jun 17 23:47:05 2019.
