 Entering Gaussian System, Link 0=g16
 Initial command:
 /Applications/g16/l1.exe "/Users/jorge/g16-scratch/Gau-6976.inp" -scrdir="/Users/jorge/g16-scratch/"
 Entering Link 1 = /Applications/g16/l1.exe PID=      6977.
  
 Copyright (c) 1988,1990,1992,1993,1995,1998,2003,2009,2016,
            Gaussian, Inc.  All Rights Reserved.
  
 This is part of the Gaussian(R) 16 program.  It is based on
 the Gaussian(R) 09 system (copyright 2009, Gaussian, Inc.),
 the Gaussian(R) 03 system (copyright 2003, Gaussian, Inc.),
 the Gaussian(R) 98 system (copyright 1998, Gaussian, Inc.),
 the Gaussian(R) 94 system (copyright 1995, Gaussian, Inc.),
 the Gaussian 92(TM) system (copyright 1992, Gaussian, Inc.),
 the Gaussian 90(TM) system (copyright 1990, Gaussian, Inc.),
 the Gaussian 88(TM) system (copyright 1988, Gaussian, Inc.),
 the Gaussian 86(TM) system (copyright 1986, Carnegie Mellon
 University), and the Gaussian 82(TM) system (copyright 1983,
 Carnegie Mellon University). Gaussian is a federally registered
 trademark of Gaussian, Inc.
  
 This software contains proprietary and confidential information,
 including trade secrets, belonging to Gaussian, Inc.
  
 This software is provided under written license and may be
 used, copied, transmitted, or stored only in accord with that
 written license.
  
 The following legend is applicable only to US Government
 contracts under FAR:
  
                    RESTRICTED RIGHTS LEGEND
  
 Use, reproduction and disclosure by the US Government is
 subject to restrictions as set forth in subparagraphs (a)
 and (c) of the Commercial Computer Software - Restricted
 Rights clause in FAR 52.227-19.
  
 Gaussian, Inc.
 340 Quinnipiac St., Bldg. 40, Wallingford CT 06492
  
  
 ---------------------------------------------------------------
 Warning -- This program may not be used in any manner that
 competes with the business of Gaussian, Inc. or will provide
 assistance to any competitor of Gaussian, Inc.  The licensee
 of this program is prohibited from giving any competitor of
 Gaussian, Inc. access to this program.  By using this program,
 the user acknowledges that Gaussian, Inc. is engaged in the
 business of creating and licensing software in the field of
 computational chemistry and represents and warrants to the
 licensee that it is not a competitor of Gaussian, Inc. and that
 it will not use this program in any manner prohibited above.
 ---------------------------------------------------------------
  

 Cite this work as:
 Gaussian 16, Revision A.03,
 M. J. Frisch, G. W. Trucks, H. B. Schlegel, G. E. Scuseria, 
 M. A. Robb, J. R. Cheeseman, G. Scalmani, V. Barone, 
 G. A. Petersson, H. Nakatsuji, X. Li, M. Caricato, A. V. Marenich, 
 J. Bloino, B. G. Janesko, R. Gomperts, B. Mennucci, H. P. Hratchian, 
 J. V. Ortiz, A. F. Izmaylov, J. L. Sonnenberg, D. Williams-Young, 
 F. Ding, F. Lipparini, F. Egidi, J. Goings, B. Peng, A. Petrone, 
 T. Henderson, D. Ranasinghe, V. G. Zakrzewski, J. Gao, N. Rega, 
 G. Zheng, W. Liang, M. Hada, M. Ehara, K. Toyota, R. Fukuda, 
 J. Hasegawa, M. Ishida, T. Nakajima, Y. Honda, O. Kitao, H. Nakai, 
 T. Vreven, K. Throssell, J. A. Montgomery, Jr., J. E. Peralta, 
 F. Ogliaro, M. J. Bearpark, J. J. Heyd, E. N. Brothers, K. N. Kudin, 
 V. N. Staroverov, T. A. Keith, R. Kobayashi, J. Normand, 
 K. Raghavachari, A. P. Rendell, J. C. Burant, S. S. Iyengar, 
 J. Tomasi, M. Cossi, J. M. Millam, M. Klene, C. Adamo, R. Cammi, 
 J. W. Ochterski, R. L. Martin, K. Morokuma, O. Farkas, 
 J. B. Foresman, and D. J. Fox, Gaussian, Inc., Wallingford CT, 2016.
 
 ******************************************
 Gaussian 16:  EM64M-G16RevA.03 25-Dec-2016
                17-Jun-2019 
 ******************************************
 %NProcShared=4
 Will use up to    4 processors via shared memory.
 --------------
 #t hf/3-21g sp
 --------------
 -----------
 benzene 1e-
 -----------
 Symbolic Z-matrix:
 Charge =  1 Multiplicity = 2
 6                    -0.75066   1.16349  0. 
 6                    -1.38286  -0.06818   0.00007 
 6                     0.63258   1.23173  -0.00003 
 6                    -0.63254  -1.23154  -0.00005 
 6                     0.75054  -1.16358  -0.00005 
 6                     1.38296   0.06815   0.00008 
 1                    -1.3318    2.06444  -0.00031 
 1                     1.12216   2.18548  -0.00014 
 1                     1.33161  -2.0646   -0.00043 
 1                     2.4538    0.12077   0.00042 
 1                    -2.45369  -0.12131   0.00018 
 1                    -1.12216  -2.18528   0.00018 
 
                    Distance matrix (angstroms):
                    1          2          3          4          5
     1  C    0.000000
     2  C    1.384442   0.000000
     3  C    1.384923   2.398280   0.000000
     4  C    2.397937   1.384332   2.769153   0.000000
     5  C    2.769268   2.398185   2.398207   1.384754   0.000000
     6  C    2.398356   2.769175   1.384554   2.398213   1.384591
     7  H    1.072117   2.133232   2.133586   3.369337   3.841385
     8  H    2.133529   3.369589   1.072074   3.841226   3.369614
     9  H    3.841405   3.369572   3.369629   2.133514   1.072137
    10  H    3.369838   3.841304   2.133320   3.369603   2.133219
    11  H    2.133305   1.072143   3.369826   2.132877   3.369479
    12  H    3.369316   2.133096   3.841233   1.072080   2.133282
                    6          7          8          9         10
     6  C    0.000000
     7  H    3.369732   0.000000
     8  H    2.133337   2.456944   0.000000
     9  H    2.133362   4.913521   4.255238   0.000000
    10  H    1.072129   4.255416   2.456884   2.456652   0.000000
    11  H    3.841318   2.456854   4.255346   4.254975   4.913447
    12  H    3.369504   4.254894   4.913307   2.456732   4.255036
                   11         12
    11  H    0.000000
    12  H    2.456209   0.000000
 Framework group  C1[X(C6H6)]
 Deg. of freedom    30
                         Standard orientation:                         
 ---------------------------------------------------------------------
 Center     Atomic      Atomic             Coordinates (Angstroms)
 Number     Number       Type             X           Y           Z
 ---------------------------------------------------------------------
      1          6           0        0.750796    1.163404    0.000003
      2          6           0        1.382851   -0.068337   -0.000069
      3          6           0       -0.632437    1.231802    0.000032
      4          6           0        0.632402   -1.231608    0.000046
      5          6           0       -0.750675   -1.163488    0.000049
      6          6           0       -1.382950    0.068308   -0.000078
      7          1           0        1.332035    2.064290    0.000311
      8          1           0       -1.121912    2.185613    0.000140
      9          1           0       -1.331845   -2.064442    0.000429
     10          1           0       -2.453781    0.121055   -0.000423
     11          1           0        2.453671   -0.121588   -0.000180
     12          1           0        1.121907   -2.185412   -0.000181
 ---------------------------------------------------------------------
 Rotational constants (GHZ):           5.7918978           5.7908451           2.8956857
    66 basis functions,   108 primitive gaussians,    66 cartesian basis functions
    21 alpha electrons       20 beta electrons
       nuclear repulsion energy       205.1097665524 Hartrees.
 NAtoms=   12 NActive=   12 NUniq=   12 SFac= 1.00D+00 NAtFMM=   60 NAOKFM=F Big=F
 ExpMin= 1.83D-01 ExpMax= 1.72D+02 ExpMxC= 1.72D+02 IAcc=3 IRadAn=         5 AccDes= 0.00D+00
 Harris functional with IExCor=  205 and IRadAn=       5 diagonalized for initial guess.
 HarFok:  IExCor=  205 AccDes= 0.00D+00 IRadAn=         5 IDoV= 1 UseB2=F ITyADJ=14
 ICtDFT=  3500011 ScaDFX=  1.000000  1.000000  1.000000  1.000000
 FoFCou: FMM=F IPFlag=           0 FMFlag=      100000 FMFlg1=           0
         NFxFlg=           0 DoJE=T BraDBF=F KetDBF=T FulRan=T
         wScrn=  0.000000 ICntrl=       500 IOpCl=  0 I1Cent=   200000004 NGrid=           0
         NMat0=    1 NMatS0=      1 NMatT0=    0 NMatD0=    1 NMtDS0=    0 NMtDT0=    0
 Petite list used in FoFCou.
 Initial guess <Sx>= 0.0000 <Sy>= 0.0000 <Sz>= 0.5000 <S**2>= 0.7500 S= 0.5000
 SCF Done:  E(UHF) =  -229.120430313     A.U. after   22 cycles
            NFock= 22  Conv=0.84D-08     -V/T= 2.0007
 <Sx>= 0.0000 <Sy>= 0.0000 <Sz>= 0.5000 <S**2>= 0.8581 S= 0.5527
 <L.S>= 0.000000000000E+00
 Annihilation of the first spin contaminant:
 S**2 before annihilation     0.8581,   after     0.7564

 **********************************************************************

            Population analysis using the SCF density.

 **********************************************************************

 Orbital symmetries:
 Alpha Orbitals:
       Occupied  (A) (A) (A) (A) (A) (A) (A) (A) (A) (A) (A) (A)
                 (A) (A) (A) (A) (A) (A) (A) (A) (A)
       Virtual   (A) (A) (A) (A) (A) (A) (A) (A) (A) (A) (A) (A)
                 (A) (A) (A) (A) (A) (A) (A) (A) (A) (A) (A) (A)
                 (A) (A) (A) (A) (A) (A) (A) (A) (A) (A) (A) (A)
                 (A) (A) (A) (A) (A) (A) (A) (A) (A)
 Beta  Orbitals:
       Occupied  (A) (A) (A) (A) (A) (A) (A) (A) (A) (A) (A) (A)
                 (A) (A) (A) (A) (A) (A) (A) (A)
       Virtual   (A) (A) (A) (A) (A) (A) (A) (A) (A) (A) (A) (A)
                 (A) (A) (A) (A) (A) (A) (A) (A) (A) (A) (A) (A)
                 (A) (A) (A) (A) (A) (A) (A) (A) (A) (A) (A) (A)
                 (A) (A) (A) (A) (A) (A) (A) (A) (A) (A)
 The electronic state is 2-A.
 Alpha  occ. eigenvalues --  -11.44430 -11.44421 -11.44401 -11.44371 -11.39132
 Alpha  occ. eigenvalues --  -11.39111  -1.42118  -1.29444  -1.24942  -1.07400
 Alpha  occ. eigenvalues --   -1.06748  -0.95728  -0.87477  -0.86904  -0.84542
 Alpha  occ. eigenvalues --   -0.81388  -0.76998  -0.72875  -0.72397  -0.63357
 Alpha  occ. eigenvalues --   -0.55931
 Alpha virt. eigenvalues --   -0.13001  -0.06245   0.06090   0.12170   0.13186
 Alpha virt. eigenvalues --    0.13754   0.16538   0.18378   0.19003   0.27774
 Alpha virt. eigenvalues --    0.28594   0.29506   0.30355   0.58982   0.59109
 Alpha virt. eigenvalues --    0.64465   0.67344   0.70239   0.76853   0.77581
 Alpha virt. eigenvalues --    0.78745   0.82594   0.84793   0.85480   0.86044
 Alpha virt. eigenvalues --    0.89153   0.90084   0.95054   1.05907   1.08405
 Alpha virt. eigenvalues --    1.10667   1.18730   1.19254   1.20615   1.33258
 Alpha virt. eigenvalues --    1.33930   1.37192   1.50456   1.50914   1.52473
 Alpha virt. eigenvalues --    1.54634   1.57296   1.91723   1.92998   2.53565
  Beta  occ. eigenvalues --  -11.43598 -11.43588 -11.43553 -11.43525 -11.39833
  Beta  occ. eigenvalues --  -11.39813  -1.39431  -1.25278  -1.23771  -1.06096
  Beta  occ. eigenvalues --   -1.05026  -0.95243  -0.86778  -0.86148  -0.83436
  Beta  occ. eigenvalues --   -0.81646  -0.72663  -0.71978  -0.68482  -0.57877
  Beta virt. eigenvalues --   -0.26023  -0.04507  -0.01818   0.06415   0.12661
  Beta virt. eigenvalues --    0.13796   0.17131   0.17835   0.18289   0.19364
  Beta virt. eigenvalues --    0.28684   0.28934   0.30097   0.30748   0.59298
  Beta virt. eigenvalues --    0.60535   0.64862   0.67568   0.73325   0.77502
  Beta virt. eigenvalues --    0.78200   0.82797   0.84092   0.85953   0.86677
  Beta virt. eigenvalues --    0.88505   0.89353   0.90500   0.96232   1.06260
  Beta virt. eigenvalues --    1.08900   1.10573   1.19143   1.19436   1.20545
  Beta virt. eigenvalues --    1.33839   1.34007   1.37837   1.51115   1.51195
  Beta virt. eigenvalues --    1.52480   1.57035   1.57061   1.93025   1.93581
  Beta virt. eigenvalues --    2.54227
          Condensed to atoms (all electrons):
          Atomic-Atomic Spin Densities.
 Mulliken charges and spin densities:
               1          2
     1  C   -0.150915   0.486175
     2  C   -0.249674  -0.426286
     3  C   -0.151045   0.485992
     4  C   -0.151003   0.485249
     5  C   -0.151002   0.486342
     6  C   -0.249594  -0.426942
     7  H    0.357895  -0.033689
     8  H    0.357871  -0.033679
     9  H    0.357883  -0.033697
    10  H    0.335851   0.022108
    11  H    0.335864   0.022063
    12  H    0.357868  -0.033634
 Sum of Mulliken charges =   1.00000   1.00000
 Mulliken charges and spin densities with hydrogens summed into heavy atoms:
               1          2
     1  C    0.206980   0.452485
     2  C    0.086190  -0.404223
     3  C    0.206826   0.452313
     4  C    0.206865   0.451615
     5  C    0.206881   0.452644
     6  C    0.086257  -0.404834
 Electronic spatial extent (au):  <R**2>=            434.2752
 Charge=              1.0000 electrons
 Dipole moment (field-independent basis, Debye):
    X=              0.0002    Y=              0.0003    Z=              0.0002  Tot=              0.0004
                          Isotropic Fermi Contact Couplings
        Atom                 a.u.       MegaHertz       Gauss      10(-4) cm-1
     1  C(13)              0.07119      80.03102      28.55706      26.69548
     2  C(13)             -0.07522     -84.56462     -30.17476     -28.20772
     3  C(13)              0.07118      80.01909      28.55280      26.69150
     4  C(13)              0.07104      79.86659      28.49839      26.64063
     5  C(13)              0.07124      80.08494      28.57630      26.71346
     6  C(13)             -0.07535     -84.70867     -30.22616     -28.25577
     7  H(1)              -0.01041     -46.52383     -16.60086     -15.51868
     8  H(1)              -0.01041     -46.50937     -16.59570     -15.51386
     9  H(1)              -0.01041     -46.53547     -16.60501     -15.52256
    10  H(1)               0.00653      29.18480      10.41386       9.73500
    11  H(1)               0.00652      29.12531      10.39264       9.71516
    12  H(1)              -0.01039     -46.44114     -16.57135     -15.49110
 --------------------------------------------------------
       Center         ----  Spin Dipole Couplings  ----
                      3XX-RR        3YY-RR        3ZZ-RR
 --------------------------------------------------------
     1   Atom       -0.185857     -0.180907      0.366764
     2   Atom        0.112799      0.118326     -0.231125
     3   Atom       -0.187066     -0.179541      0.366607
     4   Atom       -0.186836     -0.179313      0.366149
     5   Atom       -0.185873     -0.180912      0.366785
     6   Atom        0.113013      0.118532     -0.231545
     7   Atom       -0.000552      0.008436     -0.007885
     8   Atom       -0.007613      0.015494     -0.007881
     9   Atom       -0.000560      0.008443     -0.007883
    10   Atom       -0.013696      0.017544     -0.003848
    11   Atom       -0.013653      0.017506     -0.003853
    12   Atom       -0.007591      0.015469     -0.007877
 --------------------------------------------------------
                        XY            XZ            YZ
 --------------------------------------------------------
     1   Atom        0.006815     -0.000043     -0.000101
     2   Atom        0.000266     -0.000044     -0.000008
     3   Atom       -0.006198      0.000020     -0.000087
     4   Atom       -0.006198      0.000052     -0.000069
     5   Atom        0.006819      0.000015      0.000207
     6   Atom        0.000281      0.000086      0.000002
     7   Atom        0.036475      0.000009      0.000009
     8   Atom       -0.034881     -0.000005      0.000003
     9   Atom        0.036479     -0.000016     -0.000015
    10   Atom        0.001538     -0.000006      0.000001
    11   Atom        0.001545      0.000001     -0.000001
    12   Atom       -0.034845     -0.000007      0.000016
 --------------------------------------------------------


 ---------------------------------------------------------------------------------
              Anisotropic Spin Dipole Couplings in Principal Axis System
 ---------------------------------------------------------------------------------

       Atom             a.u.   MegaHertz   Gauss  10(-4) cm-1        Axes

              Baa    -0.1906   -25.581    -9.128    -8.533  0.8190 -0.5739 -0.0000
     1 C(13)  Bbb    -0.1761   -23.635    -8.434    -7.884  0.5739  0.8190  0.0002
              Bcc     0.3668    49.216    17.562    16.417 -0.0001 -0.0002  1.0000
 
              Baa    -0.2311   -31.015   -11.067   -10.345  0.0001  0.0000  1.0000
     2 C(13)  Bbb     0.1128    15.135     5.400     5.048  0.9989 -0.0479 -0.0001
              Bcc     0.1183    15.880     5.666     5.297  0.0479  0.9989 -0.0000
 
              Baa    -0.1906   -25.571    -9.124    -8.529  0.8715  0.4904  0.0000
     3 C(13)  Bbb    -0.1761   -23.625    -8.430    -7.880 -0.4904  0.8715  0.0002
              Bcc     0.3666    49.195    17.554    16.410  0.0000 -0.0002  1.0000
 
              Baa    -0.1903   -25.540    -9.113    -8.519  0.8714  0.4905 -0.0000
     4 C(13)  Bbb    -0.1758   -23.594    -8.419    -7.870 -0.4905  0.8714  0.0002
              Bcc     0.3661    49.134    17.532    16.389  0.0001 -0.0001  1.0000
 
              Baa    -0.1906   -25.583    -9.129    -8.534  0.8191 -0.5737  0.0002
     5 C(13)  Bbb    -0.1761   -23.636    -8.434    -7.884  0.5737  0.8191 -0.0003
              Bcc     0.3668    49.219    17.563    16.418  0.0000  0.0004  1.0000
 
              Baa    -0.2315   -31.071   -11.087   -10.364 -0.0002 -0.0000  1.0000
     6 C(13)  Bbb     0.1130    15.163     5.411     5.058  0.9987 -0.0506  0.0002
              Bcc     0.1185    15.908     5.676     5.306  0.0506  0.9987  0.0000
 
              Baa    -0.0328   -17.505    -6.246    -5.839  0.7491 -0.6625 -0.0000
     7 H(1)   Bbb    -0.0079    -4.207    -1.501    -1.403 -0.0002 -0.0002  1.0000
              Bcc     0.0407    21.712     7.747     7.242  0.6625  0.7491  0.0003
 
              Baa    -0.0328   -17.502    -6.245    -5.838  0.8107  0.5855  0.0001
     8 H(1)   Bbb    -0.0079    -4.205    -1.500    -1.403 -0.0000 -0.0001  1.0000
              Bcc     0.0407    21.707     7.746     7.241 -0.5855  0.8107  0.0001
 
              Baa    -0.0328   -17.508    -6.247    -5.840  0.7492 -0.6624  0.0001
     9 H(1)   Bbb    -0.0079    -4.206    -1.501    -1.403  0.0003  0.0004  1.0000
              Bcc     0.0407    21.714     7.748     7.243  0.6624  0.7492 -0.0004
 
              Baa    -0.0138    -7.348    -2.622    -2.451  0.9988 -0.0491  0.0006
    10 H(1)   Bbb    -0.0038    -2.053    -0.733    -0.685 -0.0006  0.0000  1.0000
              Bcc     0.0176     9.401     3.355     3.136  0.0491  0.9988  0.0000
 
              Baa    -0.0137    -7.326    -2.614    -2.444  0.9988 -0.0494 -0.0001
    11 H(1)   Bbb    -0.0039    -2.056    -0.734    -0.686  0.0001  0.0000  1.0000
              Bcc     0.0176     9.381     3.347     3.129  0.0494  0.9988 -0.0001
 
              Baa    -0.0328   -17.481    -6.238    -5.831  0.8106  0.5856 -0.0002
    12 H(1)   Bbb    -0.0079    -4.203    -1.500    -1.402  0.0003 -0.0002  1.0000
              Bcc     0.0406    21.684     7.738     7.233 -0.5856  0.8106  0.0003
 

 ---------------------------------------------------------------------------------

 1\1\GINC-JORGES-MACBOOK-AIR\SP\UHF\3-21G\C6H6(1+,2)\JORGE\17-Jun-2019\
 0\\#t hf/3-21g sp\\benzene 1e-\\1,2\C,0,-0.750662,1.163491,-0.000003\C
 ,0,-1.382859,-0.068177,0.000069\C,0,0.632579,1.231729,-0.000032\C,0,-0
 .632544,-1.231535,-0.000046\C,0,0.750541,-1.163575,-0.000049\C,0,1.382
 958,0.068148,0.000078\H,0,-1.331797,2.064444,-0.000311\H,0,1.122164,2.
 185484,-0.00014\H,0,1.331607,-2.064596,-0.000429\H,0,2.453795,0.120772
 ,0.000423\H,0,-2.453685,-0.121305,0.00018\H,0,-1.122159,-2.185282,0.00
 0181\\Version=EM64M-G16RevA.03\State=2-A\HF=-229.1204303\S2=0.858131\S
 2-1=0.\S2A=0.756429\RMSD=8.373e-09\Dipole=-0.0000616,0.0001014,-0.0000
 772\Quadrupole=2.3019331,5.8153082,-8.1172413,-0.1749794,0.0001659,-0.
 0003114\PG=C01 [X(C6H6)]\\@


 WE'RE IN THE POSITION OF A VISITOR FROM ANOTHER
 DIMENSION WHO COMES TO EARTH AND SEES A CHESS MATCH.
 ASSUMING HE KNOWS IT'S A GAME, HE'S GOT TWO PROBLEMS:
 FIRST, FIGURE OUT THE RULES, AND SECOND, FIGURE OUT HOW TO WIN.
 NINETY PERCENT OF SCIENCE (INCLUDING VIRTUALLY ALL OF CHEMISRY)
 IS IN THAT SECOND CATEGORY.  THEY'RE TRYING TO APPLY
 THE LAWS THAT ARE ALREADY KNOWN.

                     -- SHELDON GLASHOW, 1979
 Job cpu time:       0 days  0 hours  0 minutes  6.5 seconds.
 Elapsed time:       0 days  0 hours  0 minutes  2.0 seconds.
 File lengths (MBytes):  RWF=      6 Int=      0 D2E=      0 Chk=      1 Scr=      1
 Normal termination of Gaussian 16 at Mon Jun 17 23:47:10 2019.
