 Entering Gaussian System, Link 0=g16
 Initial command:
 /Applications/g16/l1.exe "/Users/jorge/g16-scratch/Gau-6877.inp" -scrdir="/Users/jorge/g16-scratch/"
 Entering Link 1 = /Applications/g16/l1.exe PID=      6878.
  
 Copyright (c) 1988,1990,1992,1993,1995,1998,2003,2009,2016,
            Gaussian, Inc.  All Rights Reserved.
  
 This is part of the Gaussian(R) 16 program.  It is based on
 the Gaussian(R) 09 system (copyright 2009, Gaussian, Inc.),
 the Gaussian(R) 03 system (copyright 2003, Gaussian, Inc.),
 the Gaussian(R) 98 system (copyright 1998, Gaussian, Inc.),
 the Gaussian(R) 94 system (copyright 1995, Gaussian, Inc.),
 the Gaussian 92(TM) system (copyright 1992, Gaussian, Inc.),
 the Gaussian 90(TM) system (copyright 1990, Gaussian, Inc.),
 the Gaussian 88(TM) system (copyright 1988, Gaussian, Inc.),
 the Gaussian 86(TM) system (copyright 1986, Carnegie Mellon
 University), and the Gaussian 82(TM) system (copyright 1983,
 Carnegie Mellon University). Gaussian is a federally registered
 trademark of Gaussian, Inc.
  
 This software contains proprietary and confidential information,
 including trade secrets, belonging to Gaussian, Inc.
  
 This software is provided under written license and may be
 used, copied, transmitted, or stored only in accord with that
 written license.
  
 The following legend is applicable only to US Government
 contracts under FAR:
  
                    RESTRICTED RIGHTS LEGEND
  
 Use, reproduction and disclosure by the US Government is
 subject to restrictions as set forth in subparagraphs (a)
 and (c) of the Commercial Computer Software - Restricted
 Rights clause in FAR 52.227-19.
  
 Gaussian, Inc.
 340 Quinnipiac St., Bldg. 40, Wallingford CT 06492
  
  
 ---------------------------------------------------------------
 Warning -- This program may not be used in any manner that
 competes with the business of Gaussian, Inc. or will provide
 assistance to any competitor of Gaussian, Inc.  The licensee
 of this program is prohibited from giving any competitor of
 Gaussian, Inc. access to this program.  By using this program,
 the user acknowledges that Gaussian, Inc. is engaged in the
 business of creating and licensing software in the field of
 computational chemistry and represents and warrants to the
 licensee that it is not a competitor of Gaussian, Inc. and that
 it will not use this program in any manner prohibited above.
 ---------------------------------------------------------------
  

 Cite this work as:
 Gaussian 16, Revision A.03,
 M. J. Frisch, G. W. Trucks, H. B. Schlegel, G. E. Scuseria, 
 M. A. Robb, J. R. Cheeseman, G. Scalmani, V. Barone, 
 G. A. Petersson, H. Nakatsuji, X. Li, M. Caricato, A. V. Marenich, 
 J. Bloino, B. G. Janesko, R. Gomperts, B. Mennucci, H. P. Hratchian, 
 J. V. Ortiz, A. F. Izmaylov, J. L. Sonnenberg, D. Williams-Young, 
 F. Ding, F. Lipparini, F. Egidi, J. Goings, B. Peng, A. Petrone, 
 T. Henderson, D. Ranasinghe, V. G. Zakrzewski, J. Gao, N. Rega, 
 G. Zheng, W. Liang, M. Hada, M. Ehara, K. Toyota, R. Fukuda, 
 J. Hasegawa, M. Ishida, T. Nakajima, Y. Honda, O. Kitao, H. Nakai, 
 T. Vreven, K. Throssell, J. A. Montgomery, Jr., J. E. Peralta, 
 F. Ogliaro, M. J. Bearpark, J. J. Heyd, E. N. Brothers, K. N. Kudin, 
 V. N. Staroverov, T. A. Keith, R. Kobayashi, J. Normand, 
 K. Raghavachari, A. P. Rendell, J. C. Burant, S. S. Iyengar, 
 J. Tomasi, M. Cossi, J. M. Millam, M. Klene, C. Adamo, R. Cammi, 
 J. W. Ochterski, R. L. Martin, K. Morokuma, O. Farkas, 
 J. B. Foresman, and D. J. Fox, Gaussian, Inc., Wallingford CT, 2016.
 
 ******************************************
 Gaussian 16:  EM64M-G16RevA.03 25-Dec-2016
                17-Jun-2019 
 ******************************************
 %NProcShared=4
 Will use up to    4 processors via shared memory.
 --------------
 #t hf/3-21g sp
 --------------
 -----------
 fosfina 1e+
 -----------
 Symbolic Z-matrix:
 Charge = -1 Multiplicity = 2
 15                    0.       -0.00002   0.12158 
 1                     1.05775  -0.61077  -0.60794 
 1                    -1.0579   -0.6105   -0.60794 
 1                     0.00015   1.22152  -0.60779 
 
                    Distance matrix (angstroms):
                    1          2          3          4
     1  P    0.000000
     2  H    1.422685   0.000000
     3  H    1.422685   2.115650   0.000000
     4  H    1.422713   2.115600   2.115600   0.000000
 Framework group  C1[X(H3P)]
 Deg. of freedom     6
                         Standard orientation:                         
 ---------------------------------------------------------------------
 Center     Atomic      Atomic             Coordinates (Angstroms)
 Number     Number       Type             X           Y           Z
 ---------------------------------------------------------------------
      1         15           0       -0.000000   -0.000017   -0.121577
      2          1           0       -1.061113   -0.604902    0.607935
      3          1           0        1.054507   -0.616345    0.607935
      4          1           0        0.006607    1.221498    0.607786
 ---------------------------------------------------------------------
 Rotational constants (GHZ):         135.8138053         135.8086263         112.0361216
    19 basis functions,    36 primitive gaussians,    19 cartesian basis functions
    10 alpha electrons        9 beta electrons
       nuclear repulsion energy        17.4883250497 Hartrees.
 NAtoms=    4 NActive=    4 NUniq=    4 SFac= 1.00D+00 NAtFMM=   60 NAOKFM=F Big=F
 ExpMin= 1.23D-01 ExpMax= 1.05D+03 ExpMxC= 1.05D+03 IAcc=3 IRadAn=         5 AccDes= 0.00D+00
 Harris functional with IExCor=  205 and IRadAn=       5 diagonalized for initial guess.
 HarFok:  IExCor=  205 AccDes= 0.00D+00 IRadAn=         5 IDoV= 1 UseB2=F ITyADJ=14
 ICtDFT=  3500011 ScaDFX=  1.000000  1.000000  1.000000  1.000000
 FoFCou: FMM=F IPFlag=           0 FMFlag=      100000 FMFlg1=           0
         NFxFlg=           0 DoJE=T BraDBF=F KetDBF=T FulRan=T
         wScrn=  0.000000 ICntrl=       500 IOpCl=  0 I1Cent=   200000004 NGrid=           0
         NMat0=    1 NMatS0=      1 NMatT0=    0 NMatD0=    1 NMtDS0=    0 NMtDT0=    0
 Petite list used in FoFCou.
 Initial guess <Sx>= 0.0000 <Sy>= 0.0000 <Sz>= 0.5000 <S**2>= 0.7500 S= 0.5000
 SCF Done:  E(UHF) =  -340.536129890     A.U. after   24 cycles
            NFock= 24  Conv=0.29D-08     -V/T= 1.9994
 <Sx>= 0.0000 <Sy>= 0.0000 <Sz>= 0.5000 <S**2>= 0.7593 S= 0.5046
 <L.S>= 0.000000000000E+00
 Annihilation of the first spin contaminant:
 S**2 before annihilation     0.7593,   after     0.7500

 **********************************************************************

            Population analysis using the SCF density.

 **********************************************************************

 Orbital symmetries:
 Alpha Orbitals:
       Occupied  (A) (A) (A) (A) (A) (A) (A) (A) (A) (A)
       Virtual   (A) (A) (A) (A) (A) (A) (A) (A) (A)
 Beta  Orbitals:
       Occupied  (A) (A) (A) (A) (A) (A) (A) (A) (A)
       Virtual   (A) (A) (A) (A) (A) (A) (A) (A) (A) (A)
 The electronic state is 2-A.
 Alpha  occ. eigenvalues --  -79.10713  -7.17608  -5.06430  -5.06106  -5.05744
 Alpha  occ. eigenvalues --   -0.60387  -0.28941  -0.27271  -0.12951   0.15510
 Alpha virt. eigenvalues --    0.42098   0.49591   0.85333   0.85905   0.89202
 Alpha virt. eigenvalues --    0.95731   1.46340   1.51396   1.51616
  Beta  occ. eigenvalues --  -79.10583  -7.17464  -5.06090  -5.05886  -5.05464
  Beta  occ. eigenvalues --   -0.58114  -0.25427  -0.21718  -0.09219
  Beta virt. eigenvalues --    0.43581   0.46986   0.52882   0.86507   0.88315
  Beta virt. eigenvalues --    0.89602   0.97877   1.48063   1.52242   1.57324
          Condensed to atoms (all electrons):
          Atomic-Atomic Spin Densities.
 Mulliken charges and spin densities:
               1          2
     1  P   -0.353062   0.510917
     2  H   -0.168332   0.043259
     3  H   -0.168334   0.043263
     4  H   -0.310272   0.402560
 Sum of Mulliken charges =  -1.00000   1.00000
 Mulliken charges and spin densities with hydrogens summed into heavy atoms:
               1          2
     1  P   -1.000000   1.000000
 Electronic spatial extent (au):  <R**2>=             70.4674
 Charge=             -1.0000 electrons
 Dipole moment (field-independent basis, Debye):
    X=             -0.0015    Y=             -0.2785    Z=              1.0532  Tot=              1.0894
                          Isotropic Fermi Contact Couplings
        Atom                 a.u.       MegaHertz       Gauss      10(-4) cm-1
     1  P(31)             -0.02012     -36.43426     -13.00065     -12.15316
     2  H(1)               0.00920      41.12866      14.67573      13.71905
     3  H(1)               0.00920      41.13198      14.67691      13.72015
     4  H(1)               0.07645     341.74365     121.94263     113.99341
 --------------------------------------------------------
       Center         ----  Spin Dipole Couplings  ----
                      3XX-RR        3YY-RR        3ZZ-RR
 --------------------------------------------------------
     1   Atom       -0.352334      0.898658     -0.546324
     2   Atom        0.001626     -0.000401     -0.001225
     3   Atom        0.001788     -0.000562     -0.001225
     4   Atom       -0.007189     -0.005067      0.012256
 --------------------------------------------------------
                        XY            XZ            YZ
 --------------------------------------------------------
     1   Atom        0.006760     -0.000699     -0.128869
     2   Atom       -0.007483     -0.015973      0.003858
     3   Atom        0.007460      0.016014      0.003685
     4   Atom        0.000012      0.000066      0.012117
 --------------------------------------------------------


 ---------------------------------------------------------------------------------
              Anisotropic Spin Dipole Couplings in Principal Axis System
 ---------------------------------------------------------------------------------

       Atom             a.u.   MegaHertz   Gauss  10(-4) cm-1        Axes

              Baa    -0.5577  -120.572   -43.023   -40.218  0.0005  0.0881  0.9961
     1 P(31)  Bbb    -0.3524   -76.177   -27.182   -25.410  1.0000 -0.0054 -0.0000
              Bcc     0.9101   196.748    70.205    65.628  0.0054  0.9961 -0.0881
 
              Baa    -0.0162    -8.638    -3.082    -2.881  0.6952  0.1581  0.7013
     2 H(1)   Bbb    -0.0034    -1.802    -0.643    -0.601  0.1698  0.9118 -0.3740
              Bcc     0.0196    10.440     3.725     3.482  0.6985 -0.3791 -0.6070
 
              Baa    -0.0162    -8.638    -3.082    -2.881 -0.6934  0.1656  0.7013
     3 H(1)   Bbb    -0.0034    -1.802    -0.643    -0.601 -0.1600  0.9135 -0.3740
              Bcc     0.0196    10.440     3.725     3.482  0.7026  0.3715  0.6070
 
              Baa    -0.0113    -6.029    -2.151    -2.011  0.0048  0.8892 -0.4574
     4 H(1)   Bbb    -0.0072    -3.836    -1.369    -1.279  1.0000 -0.0054 -0.0000
              Bcc     0.0185     9.865     3.520     3.291  0.0025  0.4574  0.8892
 

 ---------------------------------------------------------------------------------

 1\1\GINC-JORGES-MACBOOK-AIR\SP\UHF\3-21G\H3P1(1-,2)\JORGE\17-Jun-2019\
 0\\#t hf/3-21g sp\\fosfina 1e+\\-1,2\P,0,0.,-0.000017,0.121577\H,0,1.0
 57749,-0.610765,-0.607935\H,0,-1.057901,-0.610501,-0.607935\H,0,0.0001
 52,1.221516,-0.607786\\Version=EM64M-G16RevA.03\State=2-A\HF=-340.5361
 299\S2=0.759307\S2-1=0.\S2A=0.750004\RMSD=2.879e-09\Dipole=-0.000013,-
 0.1095696,-0.4143771\Quadrupole=1.7474415,-1.0664748,-0.6809667,-0.000
 3639,0.0001415,1.221903\PG=C01 [X(H3P1)]\\@


 Money is a good servant but a bad master.
                        -- French Proverb
 Job cpu time:       0 days  0 hours  0 minutes  3.9 seconds.
 Elapsed time:       0 days  0 hours  0 minutes  1.2 seconds.
 File lengths (MBytes):  RWF=      6 Int=      0 D2E=      0 Chk=      1 Scr=      1
 Normal termination of Gaussian 16 at Mon Jun 17 23:31:52 2019.
