 Entering Gaussian System, Link 0=g16
 Initial command:
 /Applications/g16/l1.exe "/Users/jorge/g16-scratch/Gau-6880.inp" -scrdir="/Users/jorge/g16-scratch/"
 Entering Link 1 = /Applications/g16/l1.exe PID=      6881.
  
 Copyright (c) 1988,1990,1992,1993,1995,1998,2003,2009,2016,
            Gaussian, Inc.  All Rights Reserved.
  
 This is part of the Gaussian(R) 16 program.  It is based on
 the Gaussian(R) 09 system (copyright 2009, Gaussian, Inc.),
 the Gaussian(R) 03 system (copyright 2003, Gaussian, Inc.),
 the Gaussian(R) 98 system (copyright 1998, Gaussian, Inc.),
 the Gaussian(R) 94 system (copyright 1995, Gaussian, Inc.),
 the Gaussian 92(TM) system (copyright 1992, Gaussian, Inc.),
 the Gaussian 90(TM) system (copyright 1990, Gaussian, Inc.),
 the Gaussian 88(TM) system (copyright 1988, Gaussian, Inc.),
 the Gaussian 86(TM) system (copyright 1986, Carnegie Mellon
 University), and the Gaussian 82(TM) system (copyright 1983,
 Carnegie Mellon University). Gaussian is a federally registered
 trademark of Gaussian, Inc.
  
 This software contains proprietary and confidential information,
 including trade secrets, belonging to Gaussian, Inc.
  
 This software is provided under written license and may be
 used, copied, transmitted, or stored only in accord with that
 written license.
  
 The following legend is applicable only to US Government
 contracts under FAR:
  
                    RESTRICTED RIGHTS LEGEND
  
 Use, reproduction and disclosure by the US Government is
 subject to restrictions as set forth in subparagraphs (a)
 and (c) of the Commercial Computer Software - Restricted
 Rights clause in FAR 52.227-19.
  
 Gaussian, Inc.
 340 Quinnipiac St., Bldg. 40, Wallingford CT 06492
  
  
 ---------------------------------------------------------------
 Warning -- This program may not be used in any manner that
 competes with the business of Gaussian, Inc. or will provide
 assistance to any competitor of Gaussian, Inc.  The licensee
 of this program is prohibited from giving any competitor of
 Gaussian, Inc. access to this program.  By using this program,
 the user acknowledges that Gaussian, Inc. is engaged in the
 business of creating and licensing software in the field of
 computational chemistry and represents and warrants to the
 licensee that it is not a competitor of Gaussian, Inc. and that
 it will not use this program in any manner prohibited above.
 ---------------------------------------------------------------
  

 Cite this work as:
 Gaussian 16, Revision A.03,
 M. J. Frisch, G. W. Trucks, H. B. Schlegel, G. E. Scuseria, 
 M. A. Robb, J. R. Cheeseman, G. Scalmani, V. Barone, 
 G. A. Petersson, H. Nakatsuji, X. Li, M. Caricato, A. V. Marenich, 
 J. Bloino, B. G. Janesko, R. Gomperts, B. Mennucci, H. P. Hratchian, 
 J. V. Ortiz, A. F. Izmaylov, J. L. Sonnenberg, D. Williams-Young, 
 F. Ding, F. Lipparini, F. Egidi, J. Goings, B. Peng, A. Petrone, 
 T. Henderson, D. Ranasinghe, V. G. Zakrzewski, J. Gao, N. Rega, 
 G. Zheng, W. Liang, M. Hada, M. Ehara, K. Toyota, R. Fukuda, 
 J. Hasegawa, M. Ishida, T. Nakajima, Y. Honda, O. Kitao, H. Nakai, 
 T. Vreven, K. Throssell, J. A. Montgomery, Jr., J. E. Peralta, 
 F. Ogliaro, M. J. Bearpark, J. J. Heyd, E. N. Brothers, K. N. Kudin, 
 V. N. Staroverov, T. A. Keith, R. Kobayashi, J. Normand, 
 K. Raghavachari, A. P. Rendell, J. C. Burant, S. S. Iyengar, 
 J. Tomasi, M. Cossi, J. M. Millam, M. Klene, C. Adamo, R. Cammi, 
 J. W. Ochterski, R. L. Martin, K. Morokuma, O. Farkas, 
 J. B. Foresman, and D. J. Fox, Gaussian, Inc., Wallingford CT, 2016.
 
 ******************************************
 Gaussian 16:  EM64M-G16RevA.03 25-Dec-2016
                17-Jun-2019 
 ******************************************
 %NProcShared=4
 Will use up to    4 processors via shared memory.
 --------------
 #t hf/3-21g sp
 --------------
 -----------
 fosfina 1e-
 -----------
 Symbolic Z-matrix:
 Charge =  1 Multiplicity = 2
 15                    0.       -0.00002   0.12158 
 1                     1.05775  -0.61077  -0.60794 
 1                    -1.0579   -0.6105   -0.60794 
 1                     0.00015   1.22152  -0.60779 
 
                    Distance matrix (angstroms):
                    1          2          3          4
     1  P    0.000000
     2  H    1.422685   0.000000
     3  H    1.422685   2.115650   0.000000
     4  H    1.422713   2.115600   2.115600   0.000000
 Framework group  C1[X(H3P)]
 Deg. of freedom     6
                         Standard orientation:                         
 ---------------------------------------------------------------------
 Center     Atomic      Atomic             Coordinates (Angstroms)
 Number     Number       Type             X           Y           Z
 ---------------------------------------------------------------------
      1         15           0       -0.000000   -0.000017   -0.121577
      2          1           0       -1.061113   -0.604902    0.607935
      3          1           0        1.054507   -0.616345    0.607935
      4          1           0        0.006607    1.221498    0.607786
 ---------------------------------------------------------------------
 Rotational constants (GHZ):         135.8138053         135.8086263         112.0361216
    19 basis functions,    36 primitive gaussians,    19 cartesian basis functions
     9 alpha electrons        8 beta electrons
       nuclear repulsion energy        17.4883250497 Hartrees.
 NAtoms=    4 NActive=    4 NUniq=    4 SFac= 1.00D+00 NAtFMM=   60 NAOKFM=F Big=F
 ExpMin= 1.23D-01 ExpMax= 1.05D+03 ExpMxC= 1.05D+03 IAcc=3 IRadAn=         5 AccDes= 0.00D+00
 Harris functional with IExCor=  205 and IRadAn=       5 diagonalized for initial guess.
 HarFok:  IExCor=  205 AccDes= 0.00D+00 IRadAn=         5 IDoV= 1 UseB2=F ITyADJ=14
 ICtDFT=  3500011 ScaDFX=  1.000000  1.000000  1.000000  1.000000
 FoFCou: FMM=F IPFlag=           0 FMFlag=      100000 FMFlg1=           0
         NFxFlg=           0 DoJE=T BraDBF=F KetDBF=T FulRan=T
         wScrn=  0.000000 ICntrl=       500 IOpCl=  0 I1Cent=   200000004 NGrid=           0
         NMat0=    1 NMatS0=      1 NMatT0=    0 NMatD0=    1 NMtDS0=    0 NMtDT0=    0
 Petite list used in FoFCou.
 Initial guess <Sx>= 0.0000 <Sy>= 0.0000 <Sz>= 0.5000 <S**2>= 0.7500 S= 0.5000
 SCF Done:  E(UHF) =  -340.358297331     A.U. after   11 cycles
            NFock= 11  Conv=0.58D-08     -V/T= 2.0006
 <Sx>= 0.0000 <Sy>= 0.0000 <Sz>= 0.5000 <S**2>= 0.7550 S= 0.5025
 <L.S>= 0.000000000000E+00
 Annihilation of the first spin contaminant:
 S**2 before annihilation     0.7550,   after     0.7500

 **********************************************************************

            Population analysis using the SCF density.

 **********************************************************************

 Orbital symmetries:
 Alpha Orbitals:
       Occupied  (A) (A) (A) (A) (A) (A) (A) (A) (A)
       Virtual   (A) (A) (A) (A) (A) (A) (A) (A) (A) (A)
 Beta  Orbitals:
       Occupied  (A) (A) (A) (A) (A) (A) (A) (A)
       Virtual   (A) (A) (A) (A) (A) (A) (A) (A) (A) (A) (A)
 The electronic state is 2-A.
 Alpha  occ. eigenvalues --  -79.74164  -7.81821  -5.71174  -5.69987  -5.69987
 Alpha  occ. eigenvalues --   -1.21058  -0.82717  -0.82716  -0.76965
 Alpha virt. eigenvalues --   -0.10403  -0.10402   0.00445   0.29616   0.31042
 Alpha virt. eigenvalues --    0.31043   0.42983   0.93386   0.98798   0.98799
  Beta  occ. eigenvalues --  -79.73183  -7.80398  -5.69189  -5.69189  -5.67958
  Beta  occ. eigenvalues --   -1.13933  -0.80566  -0.80565
  Beta virt. eigenvalues --   -0.31393  -0.06825  -0.06823   0.01236   0.32660
  Beta virt. eigenvalues --    0.32660   0.37813   0.44656   0.93805   0.99325
  Beta virt. eigenvalues --    0.99326
          Condensed to atoms (all electrons):
          Atomic-Atomic Spin Densities.
 Mulliken charges and spin densities:
               1          2
     1  P    0.548797   1.093281
     2  H    0.150400  -0.031089
     3  H    0.150399  -0.031089
     4  H    0.150405  -0.031102
 Sum of Mulliken charges =   1.00000   1.00000
 Mulliken charges and spin densities with hydrogens summed into heavy atoms:
               1          2
     1  P    1.000000   1.000000
 Electronic spatial extent (au):  <R**2>=             46.3880
 Charge=              1.0000 electrons
 Dipole moment (field-independent basis, Debye):
    X=             -0.0000    Y=              0.0000    Z=              0.1616  Tot=              0.1616
                          Isotropic Fermi Contact Couplings
        Atom                 a.u.       MegaHertz       Gauss      10(-4) cm-1
     1  P(31)              0.88114    1595.83217     569.43260     532.31231
     2  H(1)               0.00058       2.59160       0.92475       0.86446
     3  H(1)               0.00058       2.59149       0.92471       0.86443
     4  H(1)               0.00058       2.57207       0.91778       0.85795
 --------------------------------------------------------
       Center         ----  Spin Dipole Couplings  ----
                      3XX-RR        3YY-RR        3ZZ-RR
 --------------------------------------------------------
     1   Atom       -1.043482     -1.043439      2.086921
     2   Atom        0.011273     -0.013156      0.001883
     3   Atom        0.010824     -0.012707      0.001883
     4   Atom       -0.024915      0.023037      0.001878
 --------------------------------------------------------
                        XY            XZ            YZ
 --------------------------------------------------------
     1   Atom        0.000000      0.000001      0.000267
     2   Atom        0.020630     -0.016496     -0.009402
     3   Atom       -0.020890      0.016393     -0.009580
     4   Atom        0.000259      0.000103      0.018984
 --------------------------------------------------------


 ---------------------------------------------------------------------------------
              Anisotropic Spin Dipole Couplings in Principal Axis System
 ---------------------------------------------------------------------------------

       Atom             a.u.   MegaHertz   Gauss  10(-4) cm-1        Axes

              Baa    -1.0435  -225.584   -80.494   -75.247  1.0000 -0.0039 -0.0000
     1 P(31)  Bbb    -1.0434  -225.575   -80.491   -75.244  0.0039  1.0000 -0.0001
              Bcc     2.0869   451.159   160.985   150.490  0.0000  0.0001  1.0000
 
              Baa    -0.0249   -13.294    -4.744    -4.434 -0.4953  0.8687 -0.0001
     2 H(1)   Bbb    -0.0093    -4.949    -1.766    -1.651  0.4401  0.2510  0.8621
              Bcc     0.0342    18.243     6.510     6.085  0.7490  0.4270 -0.5067
 
              Baa    -0.0249   -13.294    -4.744    -4.434  0.5046  0.8633 -0.0001
     3 H(1)   Bbb    -0.0093    -4.949    -1.766    -1.651 -0.4374  0.2557  0.8621
              Bcc     0.0342    18.243     6.510     6.085  0.7443 -0.4350  0.5067
 
              Baa    -0.0249   -13.294    -4.744    -4.434  1.0000 -0.0054  0.0000
     4 H(1)   Bbb    -0.0093    -4.949    -1.766    -1.651 -0.0027 -0.5065  0.8622
              Bcc     0.0342    18.243     6.510     6.085  0.0047  0.8622  0.5065
 

 ---------------------------------------------------------------------------------

 1\1\GINC-JORGES-MACBOOK-AIR\SP\UHF\3-21G\H3P1(1+,2)\JORGE\17-Jun-2019\
 0\\#t hf/3-21g sp\\fosfina 1e-\\1,2\P,0,0.,-0.000017,0.121577\H,0,1.05
 7749,-0.610765,-0.607935\H,0,-1.057901,-0.610501,-0.607935\H,0,0.00015
 2,1.221516,-0.607786\\Version=EM64M-G16RevA.03\State=2-A\HF=-340.35829
 73\S2=0.754974\S2-1=0.\S2A=0.750016\RMSD=5.847e-09\Dipole=0.,0.0000055
 ,-0.0635873\Quadrupole=-0.0206751,-0.0208484,0.0415234,-0.0000008,-0.0
 000003,-0.0000595\PG=C01 [X(H3P1)]\\@


 WISDOM IS KNOWING WHAT TO DO,
 SKILL IS KNOWING HOW TO DO IT,
 AND VIRTUE IS NOT DOING IT.
 Job cpu time:       0 days  0 hours  0 minutes  3.8 seconds.
 Elapsed time:       0 days  0 hours  0 minutes  1.2 seconds.
 File lengths (MBytes):  RWF=      6 Int=      0 D2E=      0 Chk=      1 Scr=      1
 Normal termination of Gaussian 16 at Mon Jun 17 23:31:54 2019.
