 Entering Gaussian System, Link 0=g16
 Initial command:
 /Applications/g16/l1.exe "/Users/jorge/g16-scratch/Gau-816.inp" -scrdir="/Users/jorge/g16-scratch/"
 Entering Link 1 = /Applications/g16/l1.exe PID=       817.
  
 Copyright (c) 1988,1990,1992,1993,1995,1998,2003,2009,2016,
            Gaussian, Inc.  All Rights Reserved.
  
 This is part of the Gaussian(R) 16 program.  It is based on
 the Gaussian(R) 09 system (copyright 2009, Gaussian, Inc.),
 the Gaussian(R) 03 system (copyright 2003, Gaussian, Inc.),
 the Gaussian(R) 98 system (copyright 1998, Gaussian, Inc.),
 the Gaussian(R) 94 system (copyright 1995, Gaussian, Inc.),
 the Gaussian 92(TM) system (copyright 1992, Gaussian, Inc.),
 the Gaussian 90(TM) system (copyright 1990, Gaussian, Inc.),
 the Gaussian 88(TM) system (copyright 1988, Gaussian, Inc.),
 the Gaussian 86(TM) system (copyright 1986, Carnegie Mellon
 University), and the Gaussian 82(TM) system (copyright 1983,
 Carnegie Mellon University). Gaussian is a federally registered
 trademark of Gaussian, Inc.
  
 This software contains proprietary and confidential information,
 including trade secrets, belonging to Gaussian, Inc.
  
 This software is provided under written license and may be
 used, copied, transmitted, or stored only in accord with that
 written license.
  
 The following legend is applicable only to US Government
 contracts under FAR:
  
                    RESTRICTED RIGHTS LEGEND
  
 Use, reproduction and disclosure by the US Government is
 subject to restrictions as set forth in subparagraphs (a)
 and (c) of the Commercial Computer Software - Restricted
 Rights clause in FAR 52.227-19.
  
 Gaussian, Inc.
 340 Quinnipiac St., Bldg. 40, Wallingford CT 06492
  
  
 ---------------------------------------------------------------
 Warning -- This program may not be used in any manner that
 competes with the business of Gaussian, Inc. or will provide
 assistance to any competitor of Gaussian, Inc.  The licensee
 of this program is prohibited from giving any competitor of
 Gaussian, Inc. access to this program.  By using this program,
 the user acknowledges that Gaussian, Inc. is engaged in the
 business of creating and licensing software in the field of
 computational chemistry and represents and warrants to the
 licensee that it is not a competitor of Gaussian, Inc. and that
 it will not use this program in any manner prohibited above.
 ---------------------------------------------------------------
  

 Cite this work as:
 Gaussian 16, Revision A.03,
 M. J. Frisch, G. W. Trucks, H. B. Schlegel, G. E. Scuseria, 
 M. A. Robb, J. R. Cheeseman, G. Scalmani, V. Barone, 
 G. A. Petersson, H. Nakatsuji, X. Li, M. Caricato, A. V. Marenich, 
 J. Bloino, B. G. Janesko, R. Gomperts, B. Mennucci, H. P. Hratchian, 
 J. V. Ortiz, A. F. Izmaylov, J. L. Sonnenberg, D. Williams-Young, 
 F. Ding, F. Lipparini, F. Egidi, J. Goings, B. Peng, A. Petrone, 
 T. Henderson, D. Ranasinghe, V. G. Zakrzewski, J. Gao, N. Rega, 
 G. Zheng, W. Liang, M. Hada, M. Ehara, K. Toyota, R. Fukuda, 
 J. Hasegawa, M. Ishida, T. Nakajima, Y. Honda, O. Kitao, H. Nakai, 
 T. Vreven, K. Throssell, J. A. Montgomery, Jr., J. E. Peralta, 
 F. Ogliaro, M. J. Bearpark, J. J. Heyd, E. N. Brothers, K. N. Kudin, 
 V. N. Staroverov, T. A. Keith, R. Kobayashi, J. Normand, 
 K. Raghavachari, A. P. Rendell, J. C. Burant, S. S. Iyengar, 
 J. Tomasi, M. Cossi, J. M. Millam, M. Klene, C. Adamo, R. Cammi, 
 J. W. Ochterski, R. L. Martin, K. Morokuma, O. Farkas, 
 J. B. Foresman, and D. J. Fox, Gaussian, Inc., Wallingford CT, 2016.
 
 ******************************************
 Gaussian 16:  EM64M-G16RevA.03 25-Dec-2016
                18-Jun-2019 
 ******************************************
 %NProcShared=4
 Will use up to    4 processors via shared memory.
 --------------
 #t hf/3-21g sp
 --------------
 --------
 h2s2 1e+
 --------
 Symbolic Z-matrix:
 Charge = -1 Multiplicity = 2
 16                    0.        1.14798   0. 
 16                    0.       -1.14798   0. 
 1                     1.34787   1.23518   0. 
 1                    -1.34787  -1.23518   0. 
 
                    Distance matrix (angstroms):
                    1          2          3          4
     1  S    0.000000
     2  S    2.295956   0.000000
     3  H    1.350686   2.737915   0.000000
     4  H    2.737915   1.350686   3.656453   0.000000
 Framework group  C2H[SGH(H2S2)]
 Deg. of freedom     3
                         Standard orientation:                         
 ---------------------------------------------------------------------
 Center     Atomic      Atomic             Coordinates (Angstroms)
 Number     Number       Type             X           Y           Z
 ---------------------------------------------------------------------
      1         16           0        0.000000    1.147978    0.000000
      2         16           0       -0.000000   -1.147978    0.000000
      3          1           0        1.347868    1.235178    0.000000
      4          1           0       -1.347868   -1.235178    0.000000
 ---------------------------------------------------------------------
 Rotational constants (GHZ):         143.2653363           5.7771748           5.5532403
    30 basis functions,    60 primitive gaussians,    30 cartesian basis functions
    18 alpha electrons       17 beta electrons
       nuclear repulsion energy        77.8701607914 Hartrees.
 NAtoms=    4 NActive=    4 NUniq=    2 SFac= 4.00D+00 NAtFMM=   60 NAOKFM=F Big=F
 ExpMin= 1.42D-01 ExpMax= 1.21D+03 ExpMxC= 1.21D+03 IAcc=3 IRadAn=         5 AccDes= 0.00D+00
 Harris functional with IExCor=  205 and IRadAn=       5 diagonalized for initial guess.
 HarFok:  IExCor=  205 AccDes= 0.00D+00 IRadAn=         5 IDoV= 1 UseB2=F ITyADJ=14
 ICtDFT=  3500011 ScaDFX=  1.000000  1.000000  1.000000  1.000000
 FoFCou: FMM=F IPFlag=           0 FMFlag=      100000 FMFlg1=           0
         NFxFlg=           0 DoJE=T BraDBF=F KetDBF=T FulRan=T
         wScrn=  0.000000 ICntrl=       500 IOpCl=  0 I1Cent=   200000004 NGrid=           0
         NMat0=    1 NMatS0=      1 NMatT0=    0 NMatD0=    1 NMtDS0=    0 NMtDT0=    0
 Petite list used in FoFCou.
 Initial guess orbital symmetries:
 Alpha Orbitals:
       Occupied  (AG) (BU) (BU) (AG) (AG) (BU) (BU) (AG) (BG) (AU)
                 (AG) (BU) (BU) (AG) (AG) (AU) (BG) (BU)
       Virtual   (AG) (BU) (AG) (BU) (BU) (AU) (AG) (BG) (AG) (BU)
                 (AG) (BU)
 Beta  Orbitals:
       Occupied  (AG) (BU) (BU) (AG) (AG) (BU) (BU) (AG) (BG) (AU)
                 (AG) (BU) (BU) (AG) (AG) (AU) (BG)
       Virtual   (BU) (AG) (BU) (AG) (BU) (BU) (AU) (AG) (BG) (AG)
                 (BU) (AG) (BU)
 The electronic state of the initial guess is 2-BU.
 Initial guess <Sx>= 0.0000 <Sy>= 0.0000 <Sz>= 0.5000 <S**2>= 0.7500 S= 0.5000
 SCF Done:  E(UHF) =  -792.246711864     A.U. after   13 cycles
            NFock= 13  Conv=0.39D-08     -V/T= 2.0001
 <Sx>= 0.0000 <Sy>= 0.0000 <Sz>= 0.5000 <S**2>= 0.7578 S= 0.5039
 <L.S>= 0.000000000000E+00
 Annihilation of the first spin contaminant:
 S**2 before annihilation     0.7578,   after     0.7500

 **********************************************************************

            Population analysis using the SCF density.

 **********************************************************************

 Orbital symmetries:
 Alpha Orbitals:
       Occupied  (AG) (BU) (BU) (AG) (BU) (AG) (AG) (BU) (BG) (AU)
                 (AG) (BU) (AG) (BU) (AG) (AU) (BG) (BU)
       Virtual   (AG) (BU) (AG) (BU) (BU) (AU) (AG) (BG) (BU) (AG)
                 (AG) (BU)
 Beta  Orbitals:
       Occupied  (AG) (BU) (BU) (AG) (AG) (BU) (BG) (AU) (BU) (AG)
                 (AG) (BU) (BU) (AG) (AU) (AG) (BG)
       Virtual   (BU) (AG) (BU) (AG) (BU) (BU) (AU) (AG) (BG) (BU)
                 (AG) (AG) (BU)
 The electronic state is 2-BU.
 Alpha  occ. eigenvalues --  -91.05784 -91.05782  -8.65851  -8.65809  -6.33932
 Alpha  occ. eigenvalues --   -6.33887  -6.33129  -6.33119  -6.32676  -6.32656
 Alpha  occ. eigenvalues --   -0.78449  -0.68025  -0.31747  -0.31627  -0.23304
 Alpha  occ. eigenvalues --   -0.19541  -0.10903  -0.02309
 Alpha virt. eigenvalues --    0.39095   0.42402   0.84267   0.87078   0.89814
 Alpha virt. eigenvalues --    0.92741   0.94922   0.97475   1.05067   1.06577
 Alpha virt. eigenvalues --    1.39426   1.44482
  Beta  occ. eigenvalues --  -91.05137 -91.05135  -8.65032  -8.65003  -6.32648
  Beta  occ. eigenvalues --   -6.32644  -6.32205  -6.32190  -6.31641  -6.31600
  Beta  occ. eigenvalues --   -0.73657  -0.63164  -0.29959  -0.27694  -0.17882
  Beta  occ. eigenvalues --   -0.15291  -0.08810
  Beta virt. eigenvalues --    0.32818   0.39954   0.42908   0.85933   0.90229
  Beta virt. eigenvalues --    0.92876   0.93756   0.96420   0.98840   1.07482
  Beta virt. eigenvalues --    1.11003   1.39249   1.44303
          Condensed to atoms (all electrons):
          Atomic-Atomic Spin Densities.
 Mulliken charges and spin densities:
               1          2
     1  S   -0.496330   0.543828
     2  S   -0.496330   0.543828
     3  H   -0.003670  -0.043828
     4  H   -0.003670  -0.043828
 Sum of Mulliken charges =  -1.00000   1.00000
 Mulliken charges and spin densities with hydrogens summed into heavy atoms:
               1          2
     1  S   -0.500000   0.500000
     2  S   -0.500000   0.500000
 Electronic spatial extent (au):  <R**2>=            254.0766
 Charge=             -1.0000 electrons
 Dipole moment (field-independent basis, Debye):
    X=              0.0000    Y=             -0.0000    Z=              0.0000  Tot=              0.0000
                          Isotropic Fermi Contact Couplings
        Atom                 a.u.       MegaHertz       Gauss      10(-4) cm-1
     1  S(33)              0.41685     143.17685      51.08906      47.75866
     2  S(33)              0.41685     143.17685      51.08906      47.75866
     3  H(1)              -0.01181     -52.80754     -18.84304     -17.61470
     4  H(1)              -0.01181     -52.80754     -18.84304     -17.61470
 --------------------------------------------------------
       Center         ----  Spin Dipole Couplings  ----
                      3XX-RR        3YY-RR        3ZZ-RR
 --------------------------------------------------------
     1   Atom       -0.925242      1.897573     -0.972331
     2   Atom       -0.925242      1.897573     -0.972331
     3   Atom        0.028015     -0.000846     -0.027169
     4   Atom        0.028015     -0.000846     -0.027169
 --------------------------------------------------------
                        XY            XZ            YZ
 --------------------------------------------------------
     1   Atom        0.229424      0.000000      0.000000
     2   Atom        0.229424      0.000000      0.000000
     3   Atom        0.010087      0.000000      0.000000
     4   Atom        0.010087      0.000000      0.000000
 --------------------------------------------------------


 ---------------------------------------------------------------------------------
              Anisotropic Spin Dipole Couplings in Principal Axis System
 ---------------------------------------------------------------------------------

       Atom             a.u.   MegaHertz   Gauss  10(-4) cm-1        Axes

              Baa    -0.9723   -39.865   -14.225   -13.297  0.0000  0.0000  1.0000
     1 S(33)  Bbb    -0.9438   -38.694   -13.807   -12.907  0.9968 -0.0805 -0.0000
              Bcc     1.9161    78.558    28.032    26.204  0.0805  0.9968  0.0000
 
              Baa    -0.9723   -39.865   -14.225   -13.297  0.0000  0.0000  1.0000
     2 S(33)  Bbb    -0.9438   -38.694   -13.807   -12.907  0.9968 -0.0805 -0.0000
              Bcc     1.9161    78.558    28.032    26.204  0.0805  0.9968  0.0000
 
              Baa    -0.0272   -14.496    -5.173    -4.835  0.0000  0.0000  1.0000
     3 H(1)   Bbb    -0.0040    -2.146    -0.766    -0.716 -0.3003  0.9538 -0.0000
              Bcc     0.0312    16.642     5.938     5.551  0.9538  0.3003  0.0000
 
              Baa    -0.0272   -14.496    -5.173    -4.835  0.0000  0.0000  1.0000
     4 H(1)   Bbb    -0.0040    -2.146    -0.766    -0.716 -0.3003  0.9538 -0.0000
              Bcc     0.0312    16.642     5.938     5.551  0.9538  0.3003  0.0000
 

 ---------------------------------------------------------------------------------

 1\1\GINC-JORGES-MACBOOK-AIR\SP\UHF\3-21G\H2S2(1-,2)\JORGE\18-Jun-2019\
 0\\#t hf/3-21g sp\\h2s2 1e+\\-1,2\S,0,0.,1.147978,0.\S,0,0.,-1.147978,
 0.\H,0,1.347868,1.235178,0.\H,0,-1.347868,-1.235178,0.\\Version=EM64M-
 G16RevA.03\State=2-BU\HF=-792.2467119\S2=0.757765\S2-1=0.\S2A=0.750043
 \RMSD=3.883e-09\Dipole=0.,0.,0.\Quadrupole=5.2609672,-6.0850203,0.8240
 532,2.1198956,0.,0.\PG=C02H [SGH(H2S2)]\\@


 NO MATTER HOW THIN YOU SLICE IT, IT'S STILL BALONEY

                                   -- ALFRED E. SMITH
 Job cpu time:       0 days  0 hours  0 minutes  3.3 seconds.
 Elapsed time:       0 days  0 hours  0 minutes  1.0 seconds.
 File lengths (MBytes):  RWF=      6 Int=      0 D2E=      0 Chk=      1 Scr=      1
 Normal termination of Gaussian 16 at Tue Jun 18 23:16:15 2019.
