 Entering Gaussian System, Link 0=g16
 Initial command:
 /Applications/g16/l1.exe "/Users/jorge/g16-scratch/Gau-811.inp" -scrdir="/Users/jorge/g16-scratch/"
 Entering Link 1 = /Applications/g16/l1.exe PID=       812.
  
 Copyright (c) 1988,1990,1992,1993,1995,1998,2003,2009,2016,
            Gaussian, Inc.  All Rights Reserved.
  
 This is part of the Gaussian(R) 16 program.  It is based on
 the Gaussian(R) 09 system (copyright 2009, Gaussian, Inc.),
 the Gaussian(R) 03 system (copyright 2003, Gaussian, Inc.),
 the Gaussian(R) 98 system (copyright 1998, Gaussian, Inc.),
 the Gaussian(R) 94 system (copyright 1995, Gaussian, Inc.),
 the Gaussian 92(TM) system (copyright 1992, Gaussian, Inc.),
 the Gaussian 90(TM) system (copyright 1990, Gaussian, Inc.),
 the Gaussian 88(TM) system (copyright 1988, Gaussian, Inc.),
 the Gaussian 86(TM) system (copyright 1986, Carnegie Mellon
 University), and the Gaussian 82(TM) system (copyright 1983,
 Carnegie Mellon University). Gaussian is a federally registered
 trademark of Gaussian, Inc.
  
 This software contains proprietary and confidential information,
 including trade secrets, belonging to Gaussian, Inc.
  
 This software is provided under written license and may be
 used, copied, transmitted, or stored only in accord with that
 written license.
  
 The following legend is applicable only to US Government
 contracts under FAR:
  
                    RESTRICTED RIGHTS LEGEND
  
 Use, reproduction and disclosure by the US Government is
 subject to restrictions as set forth in subparagraphs (a)
 and (c) of the Commercial Computer Software - Restricted
 Rights clause in FAR 52.227-19.
  
 Gaussian, Inc.
 340 Quinnipiac St., Bldg. 40, Wallingford CT 06492
  
  
 ---------------------------------------------------------------
 Warning -- This program may not be used in any manner that
 competes with the business of Gaussian, Inc. or will provide
 assistance to any competitor of Gaussian, Inc.  The licensee
 of this program is prohibited from giving any competitor of
 Gaussian, Inc. access to this program.  By using this program,
 the user acknowledges that Gaussian, Inc. is engaged in the
 business of creating and licensing software in the field of
 computational chemistry and represents and warrants to the
 licensee that it is not a competitor of Gaussian, Inc. and that
 it will not use this program in any manner prohibited above.
 ---------------------------------------------------------------
  

 Cite this work as:
 Gaussian 16, Revision A.03,
 M. J. Frisch, G. W. Trucks, H. B. Schlegel, G. E. Scuseria, 
 M. A. Robb, J. R. Cheeseman, G. Scalmani, V. Barone, 
 G. A. Petersson, H. Nakatsuji, X. Li, M. Caricato, A. V. Marenich, 
 J. Bloino, B. G. Janesko, R. Gomperts, B. Mennucci, H. P. Hratchian, 
 J. V. Ortiz, A. F. Izmaylov, J. L. Sonnenberg, D. Williams-Young, 
 F. Ding, F. Lipparini, F. Egidi, J. Goings, B. Peng, A. Petrone, 
 T. Henderson, D. Ranasinghe, V. G. Zakrzewski, J. Gao, N. Rega, 
 G. Zheng, W. Liang, M. Hada, M. Ehara, K. Toyota, R. Fukuda, 
 J. Hasegawa, M. Ishida, T. Nakajima, Y. Honda, O. Kitao, H. Nakai, 
 T. Vreven, K. Throssell, J. A. Montgomery, Jr., J. E. Peralta, 
 F. Ogliaro, M. J. Bearpark, J. J. Heyd, E. N. Brothers, K. N. Kudin, 
 V. N. Staroverov, T. A. Keith, R. Kobayashi, J. Normand, 
 K. Raghavachari, A. P. Rendell, J. C. Burant, S. S. Iyengar, 
 J. Tomasi, M. Cossi, J. M. Millam, M. Klene, C. Adamo, R. Cammi, 
 J. W. Ochterski, R. L. Martin, K. Morokuma, O. Farkas, 
 J. B. Foresman, and D. J. Fox, Gaussian, Inc., Wallingford CT, 2016.
 
 ******************************************
 Gaussian 16:  EM64M-G16RevA.03 25-Dec-2016
                18-Jun-2019 
 ******************************************
 %NProcShared=4
 Will use up to    4 processors via shared memory.
 --------------------
 #t hf/3-21g opt freq
 --------------------
 ----
 h2s2
 ----
 Symbolic Z-matrix:
 Charge =  0 Multiplicity = 1
 S                    -0.65927   1.57459   0. 
 S                     0.70073   1.57459   0. 
 H                    -1.1126    0.39648  -0.50612 
 H                     1.15406   2.7527    0.50612 
 

 GradGradGradGradGradGradGradGradGradGradGradGradGradGradGradGradGradGrad
 Initialization pass.
                           ----------------------------
                           !    Initial Parameters    !
                           ! (Angstroms and Degrees)  !
 --------------------------                            --------------------------
 ! Name  Definition              Value          Derivative Info.                !
 --------------------------------------------------------------------------------
 ! R1    R(1,2)                  1.36           estimate D2E/DX2                !
 ! R2    R(1,3)                  1.36           estimate D2E/DX2                !
 ! R3    R(2,4)                  1.36           estimate D2E/DX2                !
 ! A1    A(2,1,3)              109.471          estimate D2E/DX2                !
 ! A2    A(1,2,4)              109.471          estimate D2E/DX2                !
 ! D1    D(3,1,2,4)            180.0            estimate D2E/DX2                !
 --------------------------------------------------------------------------------
 Number of steps in this run=     20 maximum allowed number of steps=    100.
 GradGradGradGradGradGradGradGradGradGradGradGradGradGradGradGradGradGrad

                    Distance matrix (angstroms):
                    1          2          3          4
     1  S    0.000000
     2  S    1.360000   0.000000
     3  H    1.360003   2.220871   0.000000
     4  H    2.220871   1.360003   3.422594   0.000000
 Framework group  C2H[SGH(H2S2)]
 Deg. of freedom     3
                         Standard orientation:                         
 ---------------------------------------------------------------------
 Center     Atomic      Atomic             Coordinates (Angstroms)
 Number     Number       Type             X           Y           Z
 ---------------------------------------------------------------------
      1         16           0        0.000000    0.680000   -0.000000
      2         16           0       -0.000000   -0.680000   -0.000000
      3          1           0        1.282225    1.133330    0.000000
      4          1           0       -1.282225   -1.133330   -0.000000
 ---------------------------------------------------------------------
 Rotational constants (GHZ):         167.3731886          15.5735053          14.2477964
    30 basis functions,    60 primitive gaussians,    30 cartesian basis functions
    17 alpha electrons       17 beta electrons
       nuclear repulsion energy       119.8404293910 Hartrees.



 Warning!  S  atom    1 may be hypervalent but has no d functions.
 Warning!  S  atom    2 may be hypervalent but has no d functions.



 NAtoms=    4 NActive=    4 NUniq=    2 SFac= 4.00D+00 NAtFMM=   60 NAOKFM=F Big=F
 ExpMin= 1.42D-01 ExpMax= 1.21D+03 ExpMxC= 1.21D+03 IAcc=3 IRadAn=         5 AccDes= 0.00D+00
 Harris functional with IExCor=  205 and IRadAn=       5 diagonalized for initial guess.
 HarFok:  IExCor=  205 AccDes= 0.00D+00 IRadAn=         5 IDoV= 1 UseB2=F ITyADJ=14
 ICtDFT=  3500011 ScaDFX=  1.000000  1.000000  1.000000  1.000000
 FoFCou: FMM=F IPFlag=           0 FMFlag=      100000 FMFlg1=           0
         NFxFlg=           0 DoJE=T BraDBF=F KetDBF=T FulRan=T
         wScrn=  0.000000 ICntrl=       500 IOpCl=  0 I1Cent=   200000004 NGrid=           0
         NMat0=    1 NMatS0=      1 NMatT0=    0 NMatD0=    1 NMtDS0=    0 NMtDT0=    0
 Petite list used in FoFCou.
 Initial guess orbital symmetries:
       Occupied  (BU) (AG) (AG) (BU) (AG) (BU) (BU) (AG) (AU) (BG)
                 (AG) (BU) (BU) (AG) (AU) (AG) (BG)
       Virtual   (BU) (AG) (BU) (AG) (AU) (BU) (AG) (AG) (BG) (BU)
                 (BU) (AG) (BU)
 The electronic state of the initial guess is 1-AG.
 SCF Done:  E(RHF) =  -791.440296967     A.U. after   10 cycles
            NFock= 10  Conv=0.21D-08     -V/T= 1.9944

 **********************************************************************

            Population analysis using the SCF density.

 **********************************************************************

 Orbital symmetries:
       Occupied  (BU) (AG) (AG) (BU) (AG) (BU) (BU) (AG) (AU) (BG)
                 (AG) (BU) (BU) (AG) (AU) (AG) (BG)
       Virtual   (BU) (AG) (BU) (AG) (AU) (BU) (AG) (AG) (BG) (BU)
                 (BU) (AG) (BU)
 The electronic state is 1-AG.
 Alpha  occ. eigenvalues --  -91.31463 -91.31326  -8.98209  -8.97310  -6.67373
 Alpha  occ. eigenvalues --   -6.64745  -6.63893  -6.63631  -6.63538  -6.63226
 Alpha  occ. eigenvalues --   -1.38991  -0.86708  -0.65467  -0.64447  -0.63283
 Alpha  occ. eigenvalues --   -0.38737  -0.25449
 Alpha virt. eigenvalues --    0.12486   0.19904   0.31329   0.41090   0.58913
 Alpha virt. eigenvalues --    0.62506   0.66436   0.75385   0.76224   0.83625
 Alpha virt. eigenvalues --    1.05453   1.15503   1.19035
          Condensed to atoms (all electrons):
 Mulliken charges:
               1
     1  S   -0.177433
     2  S   -0.177433
     3  H    0.177433
     4  H    0.177433
 Sum of Mulliken charges =  -0.00000
 Mulliken charges with hydrogens summed into heavy atoms:
               1
     1  S   -0.000000
     2  S   -0.000000
 Electronic spatial extent (au):  <R**2>=            135.1378
 Charge=             -0.0000 electrons
 Dipole moment (field-independent basis, Debye):
    X=              0.0000    Y=             -0.0000    Z=              0.0000  Tot=              0.0000
 Calling FoFJK, ICntrl=      2127 FMM=F ISym2X=1 I1Cent= 0 IOpClX= 0 NMat=1 NMatS=1 NMatT=0.

 GradGradGradGradGradGradGradGradGradGradGradGradGradGradGradGradGradGrad
 FormGI is forming the generalized inverse of G from B-inverse, IUseBI=4.
 Internal  Forces:  Max     1.844394265 RMS     0.753003454
 Step number   1 out of a maximum of   20
 All quantities printed in internal units (Hartrees-Bohrs-Radians)
 Mixed Optimization -- RFO/linear search
 Second derivative matrix not updated -- first step.
 ITU=  0
     Eigenvalues ---    0.09763   0.16000   0.16000   0.24884   0.24884
     Eigenvalues ---   13.70460
 Linear search not attempted -- first point.
 Iteration  1 RMS(Cart)=  0.05378597 RMS(Int)=  0.00093898
 Iteration  2 RMS(Cart)=  0.00108025 RMS(Int)=  0.00000058
 Iteration  3 RMS(Cart)=  0.00000074 RMS(Int)=  0.00000000
 ClnCor:  largest displacement from symmetrization is 1.99D-11 for atom     3.
 Variable       Old X    -DE/DX   Delta X   Delta X   Delta X     New X
                                 (Linear)    (Quad)   (Total)
    R1        2.57003   1.84439   0.00000   0.13222   0.13222   2.70225
    R2        2.57003  -0.00763   0.00000  -0.01546  -0.01546   2.55457
    R3        2.57003  -0.00763   0.00000  -0.01546  -0.01546   2.55457
    A1        1.91063   0.00945   0.00000   0.02336   0.02336   1.93399
    A2        1.91063   0.00945   0.00000   0.02336   0.02336   1.93399
    D1        3.14159   0.00000   0.00000   0.00000   0.00000   3.14159
         Item               Value     Threshold  Converged?
 Maximum Force            1.844394     0.000450     NO 
 RMS     Force            0.753003     0.000300     NO 
 Maximum Displacement     0.065543     0.001800     NO 
 RMS     Displacement     0.054413     0.001200     NO 
 GradGradGradGradGradGradGradGradGradGradGradGradGradGradGradGradGradGrad

                    Distance matrix (angstroms):
                    1          2          3          4
     1  S    0.000000
     2  S    1.429969   0.000000
     3  H    1.351821   2.290352   0.000000
     4  H    2.290352   1.351821   3.478714   0.000000
 Framework group  C2H[SGH(H2S2)]
 Deg. of freedom     3
                         Standard orientation:                         
 ---------------------------------------------------------------------
 Center     Atomic      Atomic             Coordinates (Angstroms)
 Number     Number       Type             X           Y           Z
 ---------------------------------------------------------------------
      1         16           0        0.000000    0.714985   -0.000000
      2         16           0       -0.000000   -0.714985   -0.000000
      3          1           0        1.263638    1.195233    0.000000
      4          1           0       -1.263638   -1.195233   -0.000000
 ---------------------------------------------------------------------
 Rotational constants (GHZ):         172.2167378          14.0962734          13.0297621
    30 basis functions,    60 primitive gaussians,    30 cartesian basis functions
    17 alpha electrons       17 beta electrons
       nuclear repulsion energy       114.8080234577 Hartrees.



 Warning!  S  atom    1 may be hypervalent but has no d functions.
 Warning!  S  atom    2 may be hypervalent but has no d functions.



 NAtoms=    4 NActive=    4 NUniq=    2 SFac= 4.00D+00 NAtFMM=   60 NAOKFM=F Big=F
 Initial guess from the checkpoint file:  "/Users/jorge/g16-scratch/Gau-812.chk"
 B after Tr=     0.000000    0.000000    0.000000
         Rot=    0.999989   -0.000000   -0.000000   -0.004670 Ang=  -0.54 deg.
 Initial guess orbital symmetries:
       Occupied  (BU) (AG) (AG) (BU) (AG) (BU) (BU) (AG) (AU) (BG)
                 (AG) (BU) (BU) (AG) (AU) (AG) (BG)
       Virtual   (BU) (AG) (BU) (AG) (AU) (BU) (AG) (AG) (BG) (BU)
                 (BU) (AG) (BU)
 ExpMin= 1.42D-01 ExpMax= 1.21D+03 ExpMxC= 1.21D+03 IAcc=2 IRadAn=         4 AccDes= 0.00D+00
 Harris functional with IExCor=  205 and IRadAn=       4 diagonalized for initial guess.
 HarFok:  IExCor=  205 AccDes= 0.00D+00 IRadAn=         4 IDoV= 1 UseB2=F ITyADJ=14
 ICtDFT=  3500011 ScaDFX=  1.000000  1.000000  1.000000  1.000000
 FoFCou: FMM=F IPFlag=           0 FMFlag=      100000 FMFlg1=           0
         NFxFlg=           0 DoJE=T BraDBF=F KetDBF=T FulRan=T
         wScrn=  0.000000 ICntrl=       500 IOpCl=  0 I1Cent=   200000004 NGrid=           0
         NMat0=    1 NMatS0=      1 NMatT0=    0 NMatD0=    1 NMtDS0=    0 NMtDT0=    0
 Petite list used in FoFCou.
 SCF Done:  E(RHF) =  -791.652589499     A.U. after   10 cycles
            NFock= 10  Conv=0.32D-08     -V/T= 1.9956
 Calling FoFJK, ICntrl=      2127 FMM=F ISym2X=1 I1Cent= 0 IOpClX= 0 NMat=1 NMatS=1 NMatT=0.

 GradGradGradGradGradGradGradGradGradGradGradGradGradGradGradGradGradGrad
 Using GEDIIS/GDIIS optimizer.
 FormGI is forming the generalized inverse of G from B-inverse, IUseBI=4.
 Internal  Forces:  Max     1.383922342 RMS     0.565018912
 Step number   2 out of a maximum of   20
 All quantities printed in internal units (Hartrees-Bohrs-Radians)
 Mixed Optimization -- RFO/linear search
 Trust test= 1.70D+00 RLast= 1.38D-01 DXMaxT set to 4.14D-01
 ITU=  1  0
 Use linear search instead of GDIIS.
     Eigenvalues ---    0.09763   0.16000   0.16368   0.24884   0.24884
     Eigenvalues ---    3.45343
 Quartic linear search produced a step of  2.00000.
 Maximum step size (   0.414) exceeded in Quadratic search.
    -- Step size scaled by   0.652
 Iteration  1 RMS(Cart)=  0.11739021 RMS(Int)=  0.04130175
 Iteration  2 RMS(Cart)=  0.03543224 RMS(Int)=  0.00061525
 Iteration  3 RMS(Cart)=  0.00084019 RMS(Int)=  0.00000007
 Iteration  4 RMS(Cart)=  0.00000007 RMS(Int)=  0.00000001
 ClnCor:  largest displacement from symmetrization is 9.62D-09 for atom     4.
 Variable       Old X    -DE/DX   Delta X   Delta X   Delta X     New X
                                 (Linear)    (Quad)   (Total)
    R1        2.70225   1.38392   0.26445   0.02693   0.29137   2.99362
    R2        2.55457  -0.00537  -0.03092   0.08192   0.05099   2.60556
    R3        2.55457  -0.00537  -0.03092   0.08192   0.05099   2.60556
    A1        1.93399  -0.00947   0.04672  -0.28047  -0.23375   1.70024
    A2        1.93399  -0.00947   0.04672  -0.28047  -0.23375   1.70024
    D1        3.14159   0.00000   0.00000   0.00000   0.00000   3.14159
         Item               Value     Threshold  Converged?
 Maximum Force            1.383922     0.000450     NO 
 RMS     Force            0.565019     0.000300     NO 
 Maximum Displacement     0.158254     0.001800     NO 
 RMS     Displacement     0.151407     0.001200     NO 
 GradGradGradGradGradGradGradGradGradGradGradGradGradGradGradGradGradGrad

                    Distance matrix (angstroms):
                    1          2          3          4
     1  S    0.000000
     2  S    1.584156   0.000000
     3  H    1.378805   2.230368   0.000000
     4  H    2.230368   1.378805   3.352870   0.000000
 Framework group  C2H[SGH(H2S2)]
 Deg. of freedom     3
                         Standard orientation:                         
 ---------------------------------------------------------------------
 Center     Atomic      Atomic             Coordinates (Angstroms)
 Number     Number       Type             X           Y           Z
 ---------------------------------------------------------------------
      1         16           0       -0.000000    0.792078   -0.000000
      2         16           0       -0.000000   -0.792078   -0.000000
      3          1           0        1.367270    0.970056    0.000000
      4          1           0       -1.367270   -0.970056    0.000000
 ---------------------------------------------------------------------
 Rotational constants (GHZ):         141.0829044          11.9756708          11.0386655
    30 basis functions,    60 primitive gaussians,    30 cartesian basis functions
    17 alpha electrons       17 beta electrons
       nuclear repulsion energy       105.5467252071 Hartrees.



 Warning!  S  atom    1 may be hypervalent but has no d functions.
 Warning!  S  atom    2 may be hypervalent but has no d functions.



 NAtoms=    4 NActive=    4 NUniq=    2 SFac= 4.00D+00 NAtFMM=   60 NAOKFM=F Big=F
 Initial guess from the checkpoint file:  "/Users/jorge/g16-scratch/Gau-812.chk"
 B after Tr=     0.000000    0.000000   -0.000000
         Rot=    0.999854    0.000000    0.000000    0.017083 Ang=   1.96 deg.
 Initial guess orbital symmetries:
       Occupied  (BU) (AG) (AG) (BU) (AG) (BU) (BU) (AG) (AU) (BG)
                 (AG) (BU) (AG) (BU) (AU) (AG) (BG)
       Virtual   (BU) (AG) (BU) (AG) (AU) (BU) (AG) (AG) (BG) (BU)
                 (BU) (AG) (BU)
 ExpMin= 1.42D-01 ExpMax= 1.21D+03 ExpMxC= 1.21D+03 IAcc=2 IRadAn=         4 AccDes= 0.00D+00
 Harris functional with IExCor=  205 and IRadAn=       4 diagonalized for initial guess.
 HarFok:  IExCor=  205 AccDes= 0.00D+00 IRadAn=         4 IDoV= 1 UseB2=F ITyADJ=14
 ICtDFT=  3500011 ScaDFX=  1.000000  1.000000  1.000000  1.000000
 FoFCou: FMM=F IPFlag=           0 FMFlag=      100000 FMFlg1=           0
         NFxFlg=           0 DoJE=T BraDBF=F KetDBF=T FulRan=T
         wScrn=  0.000000 ICntrl=       500 IOpCl=  0 I1Cent=   200000004 NGrid=           0
         NMat0=    1 NMatS0=      1 NMatT0=    0 NMatD0=    1 NMtDS0=    0 NMtDT0=    0
 Petite list used in FoFCou.
 SCF Done:  E(RHF) =  -791.946012451     A.U. after   10 cycles
            NFock= 10  Conv=0.81D-08     -V/T= 1.9974
 Calling FoFJK, ICntrl=      2127 FMM=F ISym2X=1 I1Cent= 0 IOpClX= 0 NMat=1 NMatS=1 NMatT=0.

 GradGradGradGradGradGradGradGradGradGradGradGradGradGradGradGradGradGrad
 Using GEDIIS/GDIIS optimizer.
 FormGI is forming the generalized inverse of G from B-inverse, IUseBI=4.
 Internal  Forces:  Max     0.756012801 RMS     0.309938385
 Step number   3 out of a maximum of   20
 All quantities printed in internal units (Hartrees-Bohrs-Radians)
 Mixed Optimization -- RFO/linear search
 Trust test= 1.10D+00 RLast= 4.47D-01 DXMaxT set to 6.96D-01
 ITU=  1  1  0
 Use linear search instead of GDIIS.
 Linear search step of   0.893 exceeds DXMaxT=   0.696 but not scaled.
 Quartic linear search produced a step of  2.00000.
 Iteration  1 RMS(Cart)=  0.13055139 RMS(Int)=  0.22122881
 Iteration  2 RMS(Cart)=  0.18005349 RMS(Int)=  0.08206759
 Iteration  3 RMS(Cart)=  0.09066547 RMS(Int)=  0.00284356
 Iteration  4 RMS(Cart)=  0.00328631 RMS(Int)=  0.00000137
 Iteration  5 RMS(Cart)=  0.00000188 RMS(Int)=  0.00000000
 Iteration  6 RMS(Cart)=  0.00000000 RMS(Int)=  0.00000000
 ClnCor:  largest displacement from symmetrization is 2.75D-08 for atom     2.
 Variable       Old X    -DE/DX   Delta X   Delta X   Delta X     New X
                                 (Linear)    (Quad)   (Total)
    R1        2.99362   0.75601   0.58274   0.00000   0.58274   3.57636
    R2        2.60556  -0.01228   0.10198   0.00000   0.10198   2.70755
    R3        2.60556  -0.01228   0.10198   0.00000   0.10198   2.70755
    A1        1.70024   0.04751  -0.46750   0.00000  -0.46750   1.23274
    A2        1.70024   0.04751  -0.46750   0.00000  -0.46750   1.23274
    D1       -3.14159   0.00000   0.00000   0.00000  -0.00000   3.14159
         Item               Value     Threshold  Converged?
 Maximum Force            0.756013     0.000450     NO 
 RMS     Force            0.309938     0.000300     NO 
 Maximum Displacement     0.435395     0.001800     NO 
 RMS     Displacement     0.391897     0.001200     NO 
 GradGradGradGradGradGradGradGradGradGradGradGradGradGradGradGradGradGrad

                    Distance matrix (angstroms):
                    1          2          3          4
     1  S    0.000000
     2  S    1.892530   0.000000
     3  H    1.432772   1.958543   0.000000
     4  H    1.958543   1.432772   2.862828   0.000000
 Framework group  C2H[SGH(H2S2)]
 Deg. of freedom     3
                         Standard orientation:                         
 ---------------------------------------------------------------------
 Center     Atomic      Atomic             Coordinates (Angstroms)
 Number     Number       Type             X           Y           Z
 ---------------------------------------------------------------------
      1         16           0       -0.000000    0.946265    0.000000
      2         16           0        0.000000   -0.946265    0.000000
      3          1           0        1.351677    0.471077    0.000000
      4          1           0       -1.351677   -0.471077    0.000000
 ---------------------------------------------------------------------
 Rotational constants (GHZ):         138.3772920           8.7535047           8.2327174
    30 basis functions,    60 primitive gaussians,    30 cartesian basis functions
    17 alpha electrons       17 beta electrons
       nuclear repulsion energy        92.2308112317 Hartrees.
 NAtoms=    4 NActive=    4 NUniq=    2 SFac= 4.00D+00 NAtFMM=   60 NAOKFM=F Big=F
 Initial guess from the checkpoint file:  "/Users/jorge/g16-scratch/Gau-812.chk"
 B after Tr=    -0.000000   -0.000000    0.000000
         Rot=    0.999728    0.000000    0.000000    0.023311 Ang=   2.67 deg.
 Initial guess orbital symmetries:
       Occupied  (BU) (AG) (BU) (AG) (AG) (BU) (BU) (AG) (AU) (BG)
                 (AG) (BU) (BU) (AG) (AU) (AG) (BG)
       Virtual   (AG) (BU) (BU) (AG) (AU) (AG) (BU) (AG) (BG) (BU)
                 (BU) (AG) (BU)
 ExpMin= 1.42D-01 ExpMax= 1.21D+03 ExpMxC= 1.21D+03 IAcc=2 IRadAn=         4 AccDes= 0.00D+00
 Harris functional with IExCor=  205 and IRadAn=       4 diagonalized for initial guess.
 HarFok:  IExCor=  205 AccDes= 0.00D+00 IRadAn=         4 IDoV= 1 UseB2=F ITyADJ=14
 ICtDFT=  3500011 ScaDFX=  1.000000  1.000000  1.000000  1.000000
 FoFCou: FMM=F IPFlag=           0 FMFlag=      100000 FMFlg1=           0
         NFxFlg=           0 DoJE=T BraDBF=F KetDBF=T FulRan=T
         wScrn=  0.000000 ICntrl=       500 IOpCl=  0 I1Cent=   200000004 NGrid=           0
         NMat0=    1 NMatS0=      1 NMatT0=    0 NMatD0=    1 NMtDS0=    0 NMtDT0=    0
 Petite list used in FoFCou.
 SCF Done:  E(RHF) =  -792.091573343     A.U. after   11 cycles
            NFock= 11  Conv=0.27D-08     -V/T= 1.9992
 Calling FoFJK, ICntrl=      2127 FMM=F ISym2X=1 I1Cent= 0 IOpClX= 0 NMat=1 NMatS=1 NMatT=0.

 GradGradGradGradGradGradGradGradGradGradGradGradGradGradGradGradGradGrad
 Using GEDIIS/GDIIS optimizer.
 FormGI is forming the generalized inverse of G from B-inverse, IUseBI=4.
 Internal  Forces:  Max     0.289618699 RMS     0.172441422
 Step number   4 out of a maximum of   20
 All quantities printed in internal units (Hartrees-Bohrs-Radians)
 Mixed Optimization -- RFO/linear search
 ITU=  0  1  1  0
 Use linear search instead of GDIIS.
     Eigenvalues ---    0.09763   0.16000   0.23951   0.24884   0.28673
     Eigenvalues ---    0.74331
 Quartic linear search produced a step of -0.13870.
 Iteration  1 RMS(Cart)=  0.26006824 RMS(Int)=  0.15614039
 Iteration  2 RMS(Cart)=  0.23972120 RMS(Int)=  0.04227275
 Iteration  3 RMS(Cart)=  0.07042854 RMS(Int)=  0.00141528
 Iteration  4 RMS(Cart)=  0.00169899 RMS(Int)=  0.00000012
 Iteration  5 RMS(Cart)=  0.00000019 RMS(Int)=  0.00000001
 ClnCor:  largest displacement from symmetrization is 4.71D-09 for atom     4.
 Variable       Old X    -DE/DX   Delta X   Delta X   Delta X     New X
                                 (Linear)    (Quad)   (Total)
    R1        3.57636   0.28962  -0.08083   0.37260   0.29177   3.86814
    R2        2.70755  -0.02274  -0.01415  -0.01807  -0.03222   2.67533
    R3        2.70755  -0.02274  -0.01415  -0.01807  -0.03222   2.67533
    A1        1.23274   0.21622   0.06484   0.38754   0.45239   1.68512
    A2        1.23274   0.21622   0.06484   0.38754   0.45239   1.68512
    D1       -3.14159  -0.00000   0.00000   0.00000  -0.00000   3.14159
         Item               Value     Threshold  Converged?
 Maximum Force            0.289619     0.000450     NO 
 RMS     Force            0.172441     0.000300     NO 
 Maximum Displacement     0.729439     0.001800     NO 
 RMS     Displacement     0.562690     0.001200     NO 
 GradGradGradGradGradGradGradGradGradGradGradGradGradGradGradGradGradGrad

                    Distance matrix (angstroms):
                    1          2          3          4
     1  S    0.000000
     2  S    2.046930   0.000000
     3  H    1.415723   2.618276   0.000000
     4  H    2.618276   1.415723   3.678228   0.000000
 Framework group  C2H[SGH(H2S2)]
 Deg. of freedom     3
                         Standard orientation:                         
 ---------------------------------------------------------------------
 Center     Atomic      Atomic             Coordinates (Angstroms)
 Number     Number       Type             X           Y           Z
 ---------------------------------------------------------------------
      1         16           0       -0.000000    1.023465    0.000000
      2         16           0       -0.000000   -1.023465    0.000000
      3          1           0        1.406481    1.184969   -0.000000
      4          1           0       -1.406481   -1.184969   -0.000000
 ---------------------------------------------------------------------
 Rotational constants (GHZ):         132.4253737           7.2216031           6.8481503
    30 basis functions,    60 primitive gaussians,    30 cartesian basis functions
    17 alpha electrons       17 beta electrons
       nuclear repulsion energy        84.7542213820 Hartrees.
 NAtoms=    4 NActive=    4 NUniq=    2 SFac= 4.00D+00 NAtFMM=   60 NAOKFM=F Big=F
 Initial guess from the checkpoint file:  "/Users/jorge/g16-scratch/Gau-812.chk"
 B after Tr=    -0.000000    0.000000   -0.000000
         Rot=    0.999659    0.000000    0.000000   -0.026126 Ang=  -2.99 deg.
 Initial guess orbital symmetries:
       Occupied  (BU) (AG) (BU) (AG) (BU) (AG) (AG) (BU) (BG) (AU)
                 (AG) (BU) (BU) (AU) (AG) (AG) (BG)
       Virtual   (AG) (BU) (BU) (AG) (AU) (BU) (AG) (AG) (BG) (BU)
                 (BU) (AG) (BU)
 ExpMin= 1.42D-01 ExpMax= 1.21D+03 ExpMxC= 1.21D+03 IAcc=2 IRadAn=         4 AccDes= 0.00D+00
 Harris functional with IExCor=  205 and IRadAn=       4 diagonalized for initial guess.
 HarFok:  IExCor=  205 AccDes= 0.00D+00 IRadAn=         4 IDoV= 1 UseB2=F ITyADJ=14
 ICtDFT=  3500011 ScaDFX=  1.000000  1.000000  1.000000  1.000000
 FoFCou: FMM=F IPFlag=           0 FMFlag=      100000 FMFlg1=           0
         NFxFlg=           0 DoJE=T BraDBF=F KetDBF=T FulRan=T
         wScrn=  0.000000 ICntrl=       500 IOpCl=  0 I1Cent=   200000004 NGrid=           0
         NMat0=    1 NMatS0=      1 NMatT0=    0 NMatD0=    1 NMtDS0=    0 NMtDT0=    0
 Petite list used in FoFCou.
 SCF Done:  E(RHF) =  -792.228984235     A.U. after   10 cycles
            NFock= 10  Conv=0.42D-08     -V/T= 2.0003
 Calling FoFJK, ICntrl=      2127 FMM=F ISym2X=1 I1Cent= 0 IOpClX= 0 NMat=1 NMatS=1 NMatT=0.

 GradGradGradGradGradGradGradGradGradGradGradGradGradGradGradGradGradGrad
 Using GEDIIS/GDIIS optimizer.
 FormGI is forming the generalized inverse of G from B-inverse, IUseBI=4.
 Internal  Forces:  Max     0.090917253 RMS     0.040418017
 Step number   5 out of a maximum of   20
 All quantities printed in internal units (Hartrees-Bohrs-Radians)
 Mixed Optimization -- RFO/linear search
 Trust test= 6.76D-01 RLast= 7.05D-01 DXMaxT set to 1.17D+00
 ITU=  1  0  1  1  0
 Use linear search instead of GDIIS.
     Eigenvalues ---    0.09763   0.16000   0.23866   0.24884   0.48976
     Eigenvalues ---    0.70617
 Quartic linear search produced a step of  0.19866.
 Iteration  1 RMS(Cart)=  0.07935981 RMS(Int)=  0.00210388
 Iteration  2 RMS(Cart)=  0.00180332 RMS(Int)=  0.00000193
 Iteration  3 RMS(Cart)=  0.00000304 RMS(Int)=  0.00000000
 Iteration  4 RMS(Cart)=  0.00000001 RMS(Int)=  0.00000000
 ClnCor:  largest displacement from symmetrization is 6.45D-09 for atom     3.
 Variable       Old X    -DE/DX   Delta X   Delta X   Delta X     New X
                                 (Linear)    (Quad)   (Total)
    R1        3.86814   0.09092   0.05796   0.08722   0.14518   4.01332
    R2        2.67533  -0.02771  -0.00640  -0.11079  -0.11719   2.55814
    R3        2.67533  -0.02771  -0.00640  -0.11079  -0.11719   2.55814
    A1        1.68512  -0.00038   0.08987  -0.03743   0.05244   1.73757
    A2        1.68512  -0.00038   0.08987  -0.03743   0.05244   1.73757
    D1        3.14159  -0.00000  -0.00000  -0.00000   0.00000   3.14159
         Item               Value     Threshold  Converged?
 Maximum Force            0.090917     0.000450     NO 
 RMS     Force            0.040418     0.000300     NO 
 Maximum Displacement     0.090569     0.001800     NO 
 RMS     Displacement     0.080014     0.001200     NO 
 GradGradGradGradGradGradGradGradGradGradGradGradGradGradGradGradGradGrad

                    Distance matrix (angstroms):
                    1          2          3          4
     1  S    0.000000
     2  S    2.123758   0.000000
     3  H    1.353710   2.701365   0.000000
     4  H    2.701365   1.353710   3.708026   0.000000
 Framework group  C2H[SGH(H2S2)]
 Deg. of freedom     3
                         Standard orientation:                         
 ---------------------------------------------------------------------
 Center     Atomic      Atomic             Coordinates (Angstroms)
 Number     Number       Type             X           Y           Z
 ---------------------------------------------------------------------
      1         16           0        0.000000    1.061879   -0.000000
      2         16           0       -0.000000   -1.061879   -0.000000
      3          1           0        1.334928    1.286596   -0.000000
      4          1           0       -1.334928   -1.286596    0.000000
 ---------------------------------------------------------------------
 Rotational constants (GHZ):         147.5329804           6.6844117           6.3946820
    30 basis functions,    60 primitive gaussians,    30 cartesian basis functions
    17 alpha electrons       17 beta electrons
       nuclear repulsion energy        82.7079114550 Hartrees.
 NAtoms=    4 NActive=    4 NUniq=    2 SFac= 4.00D+00 NAtFMM=   60 NAOKFM=F Big=F
 Initial guess from the checkpoint file:  "/Users/jorge/g16-scratch/Gau-812.chk"
 B after Tr=     0.000000   -0.000000   -0.000000
         Rot=    0.999985   -0.000000   -0.000000   -0.005476 Ang=  -0.63 deg.
 Initial guess orbital symmetries:
       Occupied  (BU) (AG) (BU) (AG) (BU) (AG) (AG) (BU) (BG) (AU)
                 (AG) (BU) (BU) (AG) (AU) (AG) (BG)
       Virtual   (BU) (AG) (BU) (AG) (BU) (AU) (BU) (AG) (BG) (AG)
                 (BU) (AG) (BU)
 ExpMin= 1.42D-01 ExpMax= 1.21D+03 ExpMxC= 1.21D+03 IAcc=2 IRadAn=         4 AccDes= 0.00D+00
 Harris functional with IExCor=  205 and IRadAn=       4 diagonalized for initial guess.
 HarFok:  IExCor=  205 AccDes= 0.00D+00 IRadAn=         4 IDoV= 1 UseB2=F ITyADJ=14
 ICtDFT=  3500011 ScaDFX=  1.000000  1.000000  1.000000  1.000000
 FoFCou: FMM=F IPFlag=           0 FMFlag=      100000 FMFlg1=           0
         NFxFlg=           0 DoJE=T BraDBF=F KetDBF=T FulRan=T
         wScrn=  0.000000 ICntrl=       500 IOpCl=  0 I1Cent=   200000004 NGrid=           0
         NMat0=    1 NMatS0=      1 NMatT0=    0 NMatD0=    1 NMtDS0=    0 NMtDT0=    0
 Petite list used in FoFCou.
 SCF Done:  E(RHF) =  -792.241911693     A.U. after    9 cycles
            NFock=  9  Conv=0.37D-08     -V/T= 2.0004
 Calling FoFJK, ICntrl=      2127 FMM=F ISym2X=1 I1Cent= 0 IOpClX= 0 NMat=1 NMatS=1 NMatT=0.

 GradGradGradGradGradGradGradGradGradGradGradGradGradGradGradGradGradGrad
 Using GEDIIS/GDIIS optimizer.
 FormGI is forming the generalized inverse of G from B-inverse, IUseBI=4.
 Internal  Forces:  Max     0.051131179 RMS     0.023484689
 Step number   6 out of a maximum of   20
 All quantities printed in internal units (Hartrees-Bohrs-Radians)
 Mixed Optimization -- RFO/linear search
 Trust test= 1.64D+00 RLast= 2.32D-01 DXMaxT set to 1.17D+00
 ITU=  1  1  0  1  1  0
 Use linear search instead of GDIIS.
     Eigenvalues ---    0.09763   0.16000   0.23772   0.24884   0.37893
     Eigenvalues ---    0.52570
 Quartic linear search produced a step of  0.44480.
 Iteration  1 RMS(Cart)=  0.04000093 RMS(Int)=  0.00059522
 Iteration  2 RMS(Cart)=  0.00042121 RMS(Int)=  0.00000008
 Iteration  3 RMS(Cart)=  0.00000011 RMS(Int)=  0.00000001
 ClnCor:  largest displacement from symmetrization is 8.93D-09 for atom     4.
 Variable       Old X    -DE/DX   Delta X   Delta X   Delta X     New X
                                 (Linear)    (Quad)   (Total)
    R1        4.01332   0.05113   0.06458   0.07128   0.13586   4.14918
    R2        2.55814  -0.00276  -0.05212   0.02282  -0.02931   2.52883
    R3        2.55814  -0.00276  -0.05212   0.02282  -0.02931   2.52883
    A1        1.73757  -0.01843   0.02333  -0.04701  -0.02368   1.71389
    A2        1.73757  -0.01843   0.02333  -0.04701  -0.02368   1.71389
    D1        3.14159   0.00000   0.00000   0.00000  -0.00000   3.14159
         Item               Value     Threshold  Converged?
 Maximum Force            0.051131     0.000450     NO 
 RMS     Force            0.023485     0.000300     NO 
 Maximum Displacement     0.067852     0.001800     NO 
 RMS     Displacement     0.040056     0.001200     NO 
 GradGradGradGradGradGradGradGradGradGradGradGradGradGradGradGradGradGrad

                    Distance matrix (angstroms):
                    1          2          3          4
     1  S    0.000000
     2  S    2.195651   0.000000
     3  H    1.338201   2.729405   0.000000
     4  H    2.729405   1.338201   3.695943   0.000000
 Framework group  C2H[SGH(H2S2)]
 Deg. of freedom     3
                         Standard orientation:                         
 ---------------------------------------------------------------------
 Center     Atomic      Atomic             Coordinates (Angstroms)
 Number     Number       Type             X           Y           Z
 ---------------------------------------------------------------------
      1         16           0        0.000000    1.097825   -0.000000
      2         16           0       -0.000000   -1.097825   -0.000000
      3          1           0        1.324525    1.288655    0.000000
      4          1           0       -1.324525   -1.288655    0.000000
 ---------------------------------------------------------------------
 Rotational constants (GHZ):         149.4085325           6.2727255           6.0199842
    30 basis functions,    60 primitive gaussians,    30 cartesian basis functions
    17 alpha electrons       17 beta electrons
       nuclear repulsion energy        80.7003579037 Hartrees.
 NAtoms=    4 NActive=    4 NUniq=    2 SFac= 4.00D+00 NAtFMM=   60 NAOKFM=F Big=F
 Initial guess from the checkpoint file:  "/Users/jorge/g16-scratch/Gau-812.chk"
 B after Tr=    -0.000000    0.000000    0.000000
         Rot=    1.000000   -0.000000   -0.000000   -0.000365 Ang=  -0.04 deg.
 Initial guess orbital symmetries:
       Occupied  (BU) (AG) (BU) (AG) (BU) (AG) (BU) (AG) (BG) (AU)
                 (AG) (BU) (AG) (BU) (AU) (AG) (BG)
       Virtual   (BU) (AG) (BU) (AG) (BU) (BU) (AU) (AG) (BG) (AG)
                 (BU) (AG) (BU)
 ExpMin= 1.42D-01 ExpMax= 1.21D+03 ExpMxC= 1.21D+03 IAcc=2 IRadAn=         4 AccDes= 0.00D+00
 Harris functional with IExCor=  205 and IRadAn=       4 diagonalized for initial guess.
 HarFok:  IExCor=  205 AccDes= 0.00D+00 IRadAn=         4 IDoV= 1 UseB2=F ITyADJ=14
 ICtDFT=  3500011 ScaDFX=  1.000000  1.000000  1.000000  1.000000
 FoFCou: FMM=F IPFlag=           0 FMFlag=      100000 FMFlg1=           0
         NFxFlg=           0 DoJE=T BraDBF=F KetDBF=T FulRan=T
         wScrn=  0.000000 ICntrl=       500 IOpCl=  0 I1Cent=   200000004 NGrid=           0
         NMat0=    1 NMatS0=      1 NMatT0=    0 NMatD0=    1 NMtDS0=    0 NMtDT0=    0
 Petite list used in FoFCou.
 SCF Done:  E(RHF) =  -792.247778842     A.U. after    9 cycles
            NFock=  9  Conv=0.18D-08     -V/T= 2.0005
 Calling FoFJK, ICntrl=      2127 FMM=F ISym2X=1 I1Cent= 0 IOpClX= 0 NMat=1 NMatS=1 NMatT=0.

 GradGradGradGradGradGradGradGradGradGradGradGradGradGradGradGradGradGrad
 Using GEDIIS/GDIIS optimizer.
 FormGI is forming the generalized inverse of G from B-inverse, IUseBI=4.
 Internal  Forces:  Max     0.025485004 RMS     0.014030878
 Step number   7 out of a maximum of   20
 All quantities printed in internal units (Hartrees-Bohrs-Radians)
 Mixed Optimization -- RFO/linear search
 Trust test= 1.45D+00 RLast= 1.46D-01 DXMaxT set to 1.17D+00
 ITU=  1  1  1  0  1  1  0
 Use linear search instead of GDIIS.
     Eigenvalues ---    0.09763   0.16000   0.18789   0.24884   0.33039
     Eigenvalues ---    0.48206
 Quartic linear search produced a step of  1.14055.
 Iteration  1 RMS(Cart)=  0.05329323 RMS(Int)=  0.00142722
 Iteration  2 RMS(Cart)=  0.00167017 RMS(Int)=  0.00000047
 Iteration  3 RMS(Cart)=  0.00000057 RMS(Int)=  0.00000000
 ClnCor:  largest displacement from symmetrization is 1.68D-08 for atom     2.
 Variable       Old X    -DE/DX   Delta X   Delta X   Delta X     New X
                                 (Linear)    (Quad)   (Total)
    R1        4.14918   0.02549   0.15495   0.01817   0.17312   4.32230
    R2        2.52883   0.00546  -0.03343   0.03897   0.00554   2.53438
    R3        2.52883   0.00546  -0.03343   0.03897   0.00554   2.53438
    A1        1.71389  -0.01536  -0.02701  -0.02796  -0.05498   1.65891
    A2        1.71389  -0.01536  -0.02701  -0.02796  -0.05498   1.65891
    D1        3.14159   0.00000  -0.00000  -0.00000   0.00000   3.14159
         Item               Value     Threshold  Converged?
 Maximum Force            0.025485     0.000450     NO 
 RMS     Force            0.014031     0.000300     NO 
 Maximum Displacement     0.086706     0.001800     NO 
 RMS     Displacement     0.053560     0.001200     NO 
 GradGradGradGradGradGradGradGradGradGradGradGradGradGradGradGradGradGrad

                    Distance matrix (angstroms):
                    1          2          3          4
     1  S    0.000000
     2  S    2.287262   0.000000
     3  H    1.341134   2.751379   0.000000
     4  H    2.751379   1.341134   3.675035   0.000000
 Framework group  C2H[SGH(H2S2)]
 Deg. of freedom     3
                         Standard orientation:                         
 ---------------------------------------------------------------------
 Center     Atomic      Atomic             Coordinates (Angstroms)
 Number     Number       Type             X           Y           Z
 ---------------------------------------------------------------------
      1         16           0        0.000000    1.143631    0.000000
      2         16           0       -0.000000   -1.143631    0.000000
      3          1           0        1.335931    1.261649    0.000000
      4          1           0       -1.335931   -1.261649    0.000000
 ---------------------------------------------------------------------
 Rotational constants (GHZ):         146.1083169           5.8103645           5.5881381
    30 basis functions,    60 primitive gaussians,    30 cartesian basis functions
    17 alpha electrons       17 beta electrons
       nuclear repulsion energy        78.1527265871 Hartrees.
 NAtoms=    4 NActive=    4 NUniq=    2 SFac= 4.00D+00 NAtFMM=   60 NAOKFM=F Big=F
 Initial guess from the checkpoint file:  "/Users/jorge/g16-scratch/Gau-812.chk"
 B after Tr=     0.000000   -0.000000   -0.000000
         Rot=    0.999999    0.000000    0.000000    0.001075 Ang=   0.12 deg.
 Initial guess orbital symmetries:
       Occupied  (BU) (AG) (BU) (AG) (BU) (AG) (BU) (AG) (BG) (AU)
                 (AG) (BU) (BU) (AG) (AU) (AG) (BG)
       Virtual   (BU) (AG) (BU) (AG) (BU) (BU) (AU) (AG) (BG) (BU)
                 (AG) (AG) (BU)
 ExpMin= 1.42D-01 ExpMax= 1.21D+03 ExpMxC= 1.21D+03 IAcc=2 IRadAn=         4 AccDes= 0.00D+00
 Harris functional with IExCor=  205 and IRadAn=       4 diagonalized for initial guess.
 HarFok:  IExCor=  205 AccDes= 0.00D+00 IRadAn=         4 IDoV= 1 UseB2=F ITyADJ=14
 ICtDFT=  3500011 ScaDFX=  1.000000  1.000000  1.000000  1.000000
 FoFCou: FMM=F IPFlag=           0 FMFlag=      100000 FMFlg1=           0
         NFxFlg=           0 DoJE=T BraDBF=F KetDBF=T FulRan=T
         wScrn=  0.000000 ICntrl=       500 IOpCl=  0 I1Cent=   200000004 NGrid=           0
         NMat0=    1 NMatS0=      1 NMatT0=    0 NMatD0=    1 NMtDS0=    0 NMtDT0=    0
 Petite list used in FoFCou.
 SCF Done:  E(RHF) =  -792.251169351     A.U. after    9 cycles
            NFock=  9  Conv=0.15D-08     -V/T= 2.0008
 Calling FoFJK, ICntrl=      2127 FMM=F ISym2X=1 I1Cent= 0 IOpClX= 0 NMat=1 NMatS=1 NMatT=0.

 GradGradGradGradGradGradGradGradGradGradGradGradGradGradGradGradGradGrad
 Using GEDIIS/GDIIS optimizer.
 FormGI is forming the generalized inverse of G from B-inverse, IUseBI=4.
 Internal  Forces:  Max     0.005372207 RMS     0.004087493
 Step number   8 out of a maximum of   20
 All quantities printed in internal units (Hartrees-Bohrs-Radians)
 Mixed Optimization -- RFO/linear search
 Trust test= 1.31D+00 RLast= 1.90D-01 DXMaxT set to 1.17D+00
 ITU=  1  1  1  1  0  1  1
 Use linear search instead of GDIIS.
     Eigenvalues ---    0.09763   0.14722   0.16000   0.24884   0.30789
     Eigenvalues ---    0.44876
 Quartic linear search produced a step of  0.17736.
 Iteration  1 RMS(Cart)=  0.01392385 RMS(Int)=  0.00010518
 Iteration  2 RMS(Cart)=  0.00020624 RMS(Int)=  0.00000001
 Iteration  3 RMS(Cart)=  0.00000001 RMS(Int)=  0.00000000
 ClnCor:  largest displacement from symmetrization is 2.32D-09 for atom     1.
 Variable       Old X    -DE/DX   Delta X   Delta X   Delta X     New X
                                 (Linear)    (Quad)   (Total)
    R1        4.32230   0.00105   0.03070  -0.00783   0.02287   4.34517
    R2        2.53438   0.00455   0.00098   0.01454   0.01552   2.54990
    R3        2.53438   0.00455   0.00098   0.01454   0.01552   2.54990
    A1        1.65891  -0.00537  -0.00975  -0.00826  -0.01801   1.64090
    A2        1.65891  -0.00537  -0.00975  -0.00826  -0.01801   1.64090
    D1        3.14159   0.00000   0.00000  -0.00000  -0.00000   3.14159
         Item               Value     Threshold  Converged?
 Maximum Force            0.005372     0.000450     NO 
 RMS     Force            0.004087     0.000300     NO 
 Maximum Displacement     0.015361     0.001800     NO 
 RMS     Displacement     0.014040     0.001200     NO 
 GradGradGradGradGradGradGradGradGradGradGradGradGradGradGradGradGradGrad

                    Distance matrix (angstroms):
                    1          2          3          4
     1  S    0.000000
     2  S    2.299366   0.000000
     3  H    1.349348   2.746355   0.000000
     4  H    2.746355   1.349348   3.665968   0.000000
 Framework group  C2H[SGH(H2S2)]
 Deg. of freedom     3
                         Standard orientation:                         
 ---------------------------------------------------------------------
 Center     Atomic      Atomic             Coordinates (Angstroms)
 Number     Number       Type             X           Y           Z
 ---------------------------------------------------------------------
      1         16           0        0.000000    1.149683   -0.000000
      2         16           0       -0.000000   -1.149683   -0.000000
      3          1           0        1.346034    1.244196    0.000000
      4          1           0       -1.346034   -1.244196   -0.000000
 ---------------------------------------------------------------------
 Rotational constants (GHZ):         143.7159633           5.7576477           5.5358660
    30 basis functions,    60 primitive gaussians,    30 cartesian basis functions
    17 alpha electrons       17 beta electrons
       nuclear repulsion energy        77.7757004521 Hartrees.
 NAtoms=    4 NActive=    4 NUniq=    2 SFac= 4.00D+00 NAtFMM=   60 NAOKFM=F Big=F
 Initial guess from the checkpoint file:  "/Users/jorge/g16-scratch/Gau-812.chk"
 B after Tr=     0.000000    0.000000   -0.000000
         Rot=    1.000000    0.000000    0.000000    0.000739 Ang=   0.08 deg.
 Initial guess orbital symmetries:
       Occupied  (AG) (BU) (BU) (AG) (BU) (AG) (BU) (AG) (BG) (AU)
                 (AG) (BU) (BU) (AG) (AU) (AG) (BG)
       Virtual   (BU) (AG) (BU) (AG) (BU) (BU) (AU) (AG) (BG) (BU)
                 (AG) (AG) (BU)
 SCF Done:  E(RHF) =  -792.251370248     A.U. after    9 cycles
            NFock=  9  Conv=0.64D-09     -V/T= 2.0008
 Calling FoFJK, ICntrl=      2127 FMM=F ISym2X=1 I1Cent= 0 IOpClX= 0 NMat=1 NMatS=1 NMatT=0.

 GradGradGradGradGradGradGradGradGradGradGradGradGradGradGradGradGradGrad
 Using GEDIIS/GDIIS optimizer.
 FormGI is forming the generalized inverse of G from B-inverse, IUseBI=4.
 Internal  Forces:  Max     0.001523536 RMS     0.001047671
 Step number   9 out of a maximum of   20
 All quantities printed in internal units (Hartrees-Bohrs-Radians)
 Mixed Optimization -- RFO/linear search
 Trust test= 1.19D+00 RLast= 4.07D-02 DXMaxT set to 1.17D+00
 ITU=  1  1  1  1  1  0  1
 Use linear search instead of GDIIS.
     Eigenvalues ---    0.09763   0.13952   0.16000   0.24884   0.27059
     Eigenvalues ---    0.40993
 Quartic linear search produced a step of  0.14434.
 Iteration  1 RMS(Cart)=  0.00487748 RMS(Int)=  0.00000536
 Iteration  2 RMS(Cart)=  0.00000538 RMS(Int)=  0.00000000
 Iteration  3 RMS(Cart)=  0.00000000 RMS(Int)=  0.00000000
 ClnCor:  largest displacement from symmetrization is 6.94D-10 for atom     3.
 Variable       Old X    -DE/DX   Delta X   Delta X   Delta X     New X
                                 (Linear)    (Quad)   (Total)
    R1        4.34517  -0.00117   0.00330  -0.00688  -0.00358   4.34159
    R2        2.54990   0.00053   0.00224   0.00044   0.00268   2.55257
    R3        2.54990   0.00053   0.00224   0.00044   0.00268   2.55257
    A1        1.64090  -0.00152  -0.00260  -0.00153  -0.00413   1.63677
    A2        1.64090  -0.00152  -0.00260  -0.00153  -0.00413   1.63677
    D1        3.14159  -0.00000   0.00000  -0.00000   0.00000   3.14159
         Item               Value     Threshold  Converged?
 Maximum Force            0.001524     0.000450     NO 
 RMS     Force            0.001048     0.000300     NO 
 Maximum Displacement     0.006224     0.001800     NO 
 RMS     Displacement     0.004881     0.001200     NO 
 GradGradGradGradGradGradGradGradGradGradGradGradGradGradGradGradGradGrad

                    Distance matrix (angstroms):
                    1          2          3          4
     1  S    0.000000
     2  S    2.297472   0.000000
     3  H    1.350764   2.740820   0.000000
     4  H    2.740820   1.350764   3.659909   0.000000
 Framework group  C2H[SGH(H2S2)]
 Deg. of freedom     3
                         Standard orientation:                         
 ---------------------------------------------------------------------
 Center     Atomic      Atomic             Coordinates (Angstroms)
 Number     Number       Type             X           Y           Z
 ---------------------------------------------------------------------
      1         16           0       -0.000000    1.148736   -0.000000
      2         16           0       -0.000000   -1.148736   -0.000000
      3          1           0        1.347826    1.237780   -0.000000
      4          1           0       -1.347826   -1.237780    0.000000
 ---------------------------------------------------------------------
 Rotational constants (GHZ):         143.2891318           5.7689539           5.5456796
    30 basis functions,    60 primitive gaussians,    30 cartesian basis functions
    17 alpha electrons       17 beta electrons
       nuclear repulsion energy        77.8238048930 Hartrees.
 NAtoms=    4 NActive=    4 NUniq=    2 SFac= 4.00D+00 NAtFMM=   60 NAOKFM=F Big=F
 Initial guess from the checkpoint file:  "/Users/jorge/g16-scratch/Gau-812.chk"
 B after Tr=    -0.000000   -0.000000    0.000000
         Rot=    1.000000   -0.000000    0.000000    0.000222 Ang=   0.03 deg.
 Initial guess orbital symmetries:
       Occupied  (AG) (BU) (BU) (AG) (BU) (AG) (BU) (AG) (BG) (AU)
                 (AG) (BU) (BU) (AG) (AU) (AG) (BG)
       Virtual   (BU) (AG) (BU) (AG) (BU) (BU) (AU) (AG) (BG) (BU)
                 (AG) (AG) (BU)
 SCF Done:  E(RHF) =  -792.251382404     A.U. after    8 cycles
            NFock=  8  Conv=0.19D-08     -V/T= 2.0008
 Calling FoFJK, ICntrl=      2127 FMM=F ISym2X=1 I1Cent= 0 IOpClX= 0 NMat=1 NMatS=1 NMatT=0.

 GradGradGradGradGradGradGradGradGradGradGradGradGradGradGradGradGradGrad
 Using GEDIIS/GDIIS optimizer.
 FormGI is forming the generalized inverse of G from B-inverse, IUseBI=4.
 Internal  Forces:  Max     0.000506979 RMS     0.000340967
 Step number  10 out of a maximum of   20
 All quantities printed in internal units (Hartrees-Bohrs-Radians)
 Mixed Optimization -- En-DIIS/RFO-DIIS
 Trust test= 1.24D+00 RLast= 7.83D-03 DXMaxT set to 1.17D+00
 ITU=  1  1  1  1  1  1  0
 Use linear search instead of GDIIS.
     Eigenvalues ---    0.09763   0.13412   0.16000   0.24884   0.25215
     Eigenvalues ---    0.36067
 Quartic linear search produced a step of  0.31083.
 Iteration  1 RMS(Cart)=  0.00234837 RMS(Int)=  0.00000066
 Iteration  2 RMS(Cart)=  0.00000046 RMS(Int)=  0.00000000
 ClnCor:  largest displacement from symmetrization is 1.64D-08 for atom     2.
 Variable       Old X    -DE/DX   Delta X   Delta X   Delta X     New X
                                 (Linear)    (Quad)   (Total)
    R1        4.34159  -0.00051  -0.00111  -0.00175  -0.00287   4.33873
    R2        2.55257  -0.00015   0.00083  -0.00098  -0.00015   2.55243
    R3        2.55257  -0.00015   0.00083  -0.00098  -0.00015   2.55243
    A1        1.63677  -0.00044  -0.00128  -0.00008  -0.00136   1.63540
    A2        1.63677  -0.00044  -0.00128  -0.00008  -0.00136   1.63540
    D1       -3.14159  -0.00000   0.00000   0.00000   0.00000  -3.14159
         Item               Value     Threshold  Converged?
 Maximum Force            0.000507     0.000450     NO 
 RMS     Force            0.000341     0.000300     NO 
 Maximum Displacement     0.002990     0.001800     NO 
 RMS     Displacement     0.002348     0.001200     NO 
 GradGradGradGradGradGradGradGradGradGradGradGradGradGradGradGradGradGrad

                    Distance matrix (angstroms):
                    1          2          3          4
     1  S    0.000000
     2  S    2.295955   0.000000
     3  H    1.350686   2.737915   0.000000
     4  H    2.737915   1.350686   3.656453   0.000000
 Framework group  C2H[SGH(H2S2)]
 Deg. of freedom     3
                         Standard orientation:                         
 ---------------------------------------------------------------------
 Center     Atomic      Atomic             Coordinates (Angstroms)
 Number     Number       Type             X           Y           Z
 ---------------------------------------------------------------------
      1         16           0        0.000000    1.147978   -0.000000
      2         16           0       -0.000000   -1.147978   -0.000000
      3          1           0        1.347868    1.235178   -0.000000
      4          1           0       -1.347868   -1.235178   -0.000000
 ---------------------------------------------------------------------
 Rotational constants (GHZ):         143.2652955           5.7771778           5.5532431
    30 basis functions,    60 primitive gaussians,    30 cartesian basis functions
    17 alpha electrons       17 beta electrons
       nuclear repulsion energy        77.8701757033 Hartrees.
 NAtoms=    4 NActive=    4 NUniq=    2 SFac= 4.00D+00 NAtFMM=   60 NAOKFM=F Big=F
 Initial guess from the checkpoint file:  "/Users/jorge/g16-scratch/Gau-812.chk"
 B after Tr=     0.000000   -0.000000   -0.000000
         Rot=    1.000000   -0.000000   -0.000000    0.000073 Ang=   0.01 deg.
 Initial guess orbital symmetries:
       Occupied  (AG) (BU) (BU) (AG) (BU) (AG) (BU) (AG) (BG) (AU)
                 (AG) (BU) (BU) (AG) (AU) (AG) (BG)
       Virtual   (BU) (AG) (BU) (AG) (BU) (BU) (AU) (AG) (BG) (BU)
                 (AG) (AG) (BU)
 SCF Done:  E(RHF) =  -792.251383929     A.U. after    7 cycles
            NFock=  7  Conv=0.51D-08     -V/T= 2.0008
 Calling FoFJK, ICntrl=      2127 FMM=F ISym2X=1 I1Cent= 0 IOpClX= 0 NMat=1 NMatS=1 NMatT=0.

 GradGradGradGradGradGradGradGradGradGradGradGradGradGradGradGradGradGrad
 Using GEDIIS/GDIIS optimizer.
 FormGI is forming the generalized inverse of G from B-inverse, IUseBI=4.
 Internal  Forces:  Max     0.000114718 RMS     0.000075554
 Step number  11 out of a maximum of   20
 All quantities printed in internal units (Hartrees-Bohrs-Radians)
 Mixed Optimization -- En-DIIS/RFO-DIIS
 Swapping is turned off.
 Trust test= 1.12D+00 RLast= 3.46D-03 DXMaxT set to 1.17D+00
 ITU=  1  1  1  1  1  1  1
     Eigenvalues ---    0.09763   0.13231   0.16000   0.24884   0.25950
     Eigenvalues ---    0.31376
 En-DIIS/RFO-DIIS/Sim-DIIS IScMMF=       -3 using points:    11   10
 RFO step:  Lambda=-1.27510989D-07.
 DidBck=F Rises=F RFO-DIIS coefs:    1.15111   -0.15111
 Iteration  1 RMS(Cart)=  0.00040347 RMS(Int)=  0.00000001
 Iteration  2 RMS(Cart)=  0.00000002 RMS(Int)=  0.00000001
 ClnCor:  largest displacement from symmetrization is 6.96D-09 for atom     4.
 Variable       Old X    -DE/DX   Delta X   Delta X   Delta X     New X
                                 (Linear)    (Quad)   (Total)
    R1        4.33873  -0.00006  -0.00043  -0.00004  -0.00048   4.33825
    R2        2.55243  -0.00011  -0.00002  -0.00035  -0.00038   2.55205
    R3        2.55243  -0.00011  -0.00002  -0.00035  -0.00038   2.55205
    A1        1.63540  -0.00004  -0.00021   0.00008  -0.00012   1.63528
    A2        1.63540  -0.00004  -0.00021   0.00008  -0.00012   1.63528
    D1        3.14159  -0.00000  -0.00000   0.00000   0.00000   3.14159
         Item               Value     Threshold  Converged?
 Maximum Force            0.000115     0.000450     YES
 RMS     Force            0.000076     0.000300     YES
 Maximum Displacement     0.000482     0.001800     YES
 RMS     Displacement     0.000403     0.001200     YES
 Optimization completed.
    -- Stationary point found.
                           ----------------------------
                           !   Optimized Parameters   !
                           ! (Angstroms and Degrees)  !
 --------------------------                            --------------------------
 ! Name  Definition              Value          Derivative Info.                !
 --------------------------------------------------------------------------------
 ! R1    R(1,2)                  2.296          -DE/DX =   -0.0001              !
 ! R2    R(1,3)                  1.3507         -DE/DX =   -0.0001              !
 ! R3    R(2,4)                  1.3507         -DE/DX =   -0.0001              !
 ! A1    A(2,1,3)               93.7016         -DE/DX =    0.0                 !
 ! A2    A(1,2,4)               93.7016         -DE/DX =    0.0                 !
 ! D1    D(3,1,2,4)            180.0            -DE/DX =    0.0                 !
 --------------------------------------------------------------------------------
 GradGradGradGradGradGradGradGradGradGradGradGradGradGradGradGradGradGrad

                    Distance matrix (angstroms):
                    1          2          3          4
     1  S    0.000000
     2  S    2.295955   0.000000
     3  H    1.350686   2.737915   0.000000
     4  H    2.737915   1.350686   3.656453   0.000000
 Framework group  C2H[SGH(H2S2)]
 Deg. of freedom     3
                         Standard orientation:                         
 ---------------------------------------------------------------------
 Center     Atomic      Atomic             Coordinates (Angstroms)
 Number     Number       Type             X           Y           Z
 ---------------------------------------------------------------------
      1         16           0        0.000000    1.147978   -0.000000
      2         16           0       -0.000000   -1.147978   -0.000000
      3          1           0        1.347868    1.235178   -0.000000
      4          1           0       -1.347868   -1.235178   -0.000000
 ---------------------------------------------------------------------
 Rotational constants (GHZ):         143.2652955           5.7771778           5.5532431

 **********************************************************************

            Population analysis using the SCF density.

 **********************************************************************

 Orbital symmetries:
       Occupied  (AG) (BU) (BU) (AG) (BU) (AG) (BU) (AG) (BG) (AU)
                 (AG) (BU) (BU) (AG) (AU) (AG) (BG)
       Virtual   (BU) (AG) (BU) (AG) (BU) (BU) (AU) (AG) (BG) (BU)
                 (AG) (AG) (BU)
 The electronic state is 1-AG.
 Alpha  occ. eigenvalues --  -91.35875 -91.35873  -8.95613  -8.95583  -6.63058
 Alpha  occ. eigenvalues --   -6.63029  -6.62869  -6.62861  -6.62502  -6.62486
 Alpha  occ. eigenvalues --   -1.04185  -0.92271  -0.56911  -0.55079  -0.45467
 Alpha  occ. eigenvalues --   -0.44123  -0.36513
 Alpha virt. eigenvalues --    0.03144   0.16353   0.19293   0.60517   0.64470
 Alpha virt. eigenvalues --    0.66227   0.67664   0.71147   0.73458   0.81405
 Alpha virt. eigenvalues --    0.82831   1.15136   1.20318
          Condensed to atoms (all electrons):
 Mulliken charges:
               1
     1  S   -0.107917
     2  S   -0.107917
     3  H    0.107917
     4  H    0.107917
 Sum of Mulliken charges =  -0.00000
 Mulliken charges with hydrogens summed into heavy atoms:
               1
     1  S   -0.000000
     2  S   -0.000000
 Electronic spatial extent (au):  <R**2>=            237.3623
 Charge=             -0.0000 electrons
 Dipole moment (field-independent basis, Debye):
    X=             -0.0000    Y=             -0.0000    Z=              0.0000  Tot=              0.0000
 1\1\GINC-JORGES-MACBOOK-AIR\FOpt\RHF\3-21G\H2S2\JORGE\18-Jun-2019\0\\#
 t hf/3-21g opt freq\\h2s2\\0,1\S,-1.1271931762,1.5848702967,0.00441644
 99\S,1.1686531762,1.5643097033,-0.0044164499\H,-1.2275259159,0.3472868
 387,-0.5272535468\H,1.2689859159,2.8018931613,0.5272535468\\Version=EM
 64M-G16RevA.03\State=1-AG\HF=-792.2513839\RMSD=5.120e-09\RMSF=6.297e-0
 5\Dipole=0.,0.,0.\Quadrupole=-0.0785511,1.8060416,-1.7274905,2.9691951
 ,1.2755762,1.8615906\PG=C02H [SGH(H2S2)]\\@


 GOORD'S AXIOM:  A MEETING IS AN EVENT AT WHICH
 THE MINUTES ARE KEPT AND THE HOURS ARE LOST.
 Job cpu time:       0 days  0 hours  0 minutes 35.8 seconds.
 Elapsed time:       0 days  0 hours  0 minutes  9.9 seconds.
 File lengths (MBytes):  RWF=      6 Int=      0 D2E=      0 Chk=      1 Scr=      1
 Normal termination of Gaussian 16 at Tue Jun 18 23:16:12 2019.
 Link1:  Proceeding to internal job step number  2.
 --------------------------------------------------------------
 #T Geom=AllCheck Guess=TCheck SCRF=Check GenChk RHF/3-21G Freq
 --------------------------------------------------------------
 Structure from the checkpoint file:  "/Users/jorge/g16-scratch/Gau-812.chk"
 ----
 h2s2
 ----
 Charge =  0 Multiplicity = 1
 Redundant internal coordinates found in file.  (old form).
 S,0,-1.1271931762,1.5848702967,0.0044164499
 S,0,1.1686531762,1.5643097033,-0.0044164499
 H,0,-1.2275259159,0.3472868387,-0.5272535468
 H,0,1.2689859159,2.8018931613,0.5272535468
 Recover connectivity data from disk.

 GradGradGradGradGradGradGradGradGradGradGradGradGradGradGradGradGradGrad
 Initialization pass.
                           ----------------------------
                           !    Initial Parameters    !
                           ! (Angstroms and Degrees)  !
 --------------------------                            --------------------------
 ! Name  Definition              Value          Derivative Info.                !
 --------------------------------------------------------------------------------
 ! R1    R(1,2)                  2.296          calculate D2E/DX2 analytically  !
 ! R2    R(1,3)                  1.3507         calculate D2E/DX2 analytically  !
 ! R3    R(2,4)                  1.3507         calculate D2E/DX2 analytically  !
 ! A1    A(2,1,3)               93.7016         calculate D2E/DX2 analytically  !
 ! A2    A(1,2,4)               93.7016         calculate D2E/DX2 analytically  !
 ! D1    D(3,1,2,4)            180.0            calculate D2E/DX2 analytically  !
 --------------------------------------------------------------------------------
 Number of steps in this run=      2 maximum allowed number of steps=      2.
 GradGradGradGradGradGradGradGradGradGradGradGradGradGradGradGradGradGrad

                    Distance matrix (angstroms):
                    1          2          3          4
     1  S    0.000000
     2  S    2.295955   0.000000
     3  H    1.350686   2.737915   0.000000
     4  H    2.737915   1.350686   3.656453   0.000000
 Framework group  C2H[SGH(H2S2)]
 Deg. of freedom     3
                         Standard orientation:                         
 ---------------------------------------------------------------------
 Center     Atomic      Atomic             Coordinates (Angstroms)
 Number     Number       Type             X           Y           Z
 ---------------------------------------------------------------------
      1         16           0        0.000000    1.147978   -0.000000
      2         16           0       -0.000000   -1.147978   -0.000000
      3          1           0        1.347868    1.235178   -0.000000
      4          1           0       -1.347868   -1.235178    0.000000
 ---------------------------------------------------------------------
 Rotational constants (GHZ):         143.2652955           5.7771778           5.5532431
    30 basis functions,    60 primitive gaussians,    30 cartesian basis functions
    17 alpha electrons       17 beta electrons
       nuclear repulsion energy        77.8701757033 Hartrees.
 NAtoms=    4 NActive=    4 NUniq=    2 SFac= 4.00D+00 NAtFMM=   60 NAOKFM=F Big=F
 Initial guess from the checkpoint file:  "/Users/jorge/g16-scratch/Gau-812.chk"
 B after Tr=    -0.000000   -0.000000    0.000000
         Rot=    1.000000   -0.000000    0.000000    0.000000 Ang=   0.00 deg.
 Initial guess orbital symmetries:
       Occupied  (AG) (BU) (BU) (AG) (BU) (AG) (BU) (AG) (BG) (AU)
                 (AG) (BU) (BU) (AG) (AU) (AG) (BG)
       Virtual   (BU) (AG) (BU) (AG) (BU) (BU) (AU) (AG) (BG) (BU)
                 (AG) (AG) (BU)
 SCF Done:  E(RHF) =  -792.251383929     A.U. after    1 cycles
            NFock=  1  Conv=0.41D-09     -V/T= 2.0008
 NROrb=     30 NOA=    17 NOB=    17 NVA=    13 NVB=    13
          Electric field/nuclear overlap derivatives assumed to be zero.
 End of Minotr F.D. properties file   721 does not exist.
 End of Minotr F.D. properties file   722 does not exist.
 End of Minotr F.D. properties file   788 does not exist.
 Symmetrizing basis deriv contribution to polar:
 IMax=3 JMax=2 DiffMx= 0.00D+00
 PxScal for G2LodP:  IOpCl= 0 ISclPx=1 IMOff=     1 NMtTot=     4 NTT=     465 ScalPx= 3.35D+00
 Calling FoFCou, ICntrl=  3107 FMM=F I1Cent=   0 AccDes= 0.00D+00.
 End of G2Drv F.D. properties file   721 does not exist.
 End of G2Drv F.D. properties file   722 does not exist.
 End of G2Drv F.D. properties file   788 does not exist.
          IDoAtm=1111
 Will reuse    3 saved solutions.
 End of Minotr F.D. properties file   721 does not exist.
 End of Minotr F.D. properties file   722 does not exist.
 End of Minotr F.D. properties file   788 does not exist.

 **********************************************************************

            Population analysis using the SCF density.

 **********************************************************************

 Orbital symmetries:
       Occupied  (AG) (BU) (BU) (AG) (BU) (AG) (BU) (AG) (BG) (AU)
                 (AG) (BU) (BU) (AG) (AU) (AG) (BG)
       Virtual   (BU) (AG) (BU) (AG) (BU) (BU) (AU) (AG) (BG) (BU)
                 (AG) (AG) (BU)
 The electronic state is 1-AG.
 Alpha  occ. eigenvalues --  -91.35875 -91.35873  -8.95613  -8.95583  -6.63058
 Alpha  occ. eigenvalues --   -6.63029  -6.62869  -6.62861  -6.62502  -6.62486
 Alpha  occ. eigenvalues --   -1.04185  -0.92271  -0.56911  -0.55079  -0.45467
 Alpha  occ. eigenvalues --   -0.44123  -0.36513
 Alpha virt. eigenvalues --    0.03144   0.16353   0.19293   0.60517   0.64470
 Alpha virt. eigenvalues --    0.66227   0.67664   0.71147   0.73458   0.81405
 Alpha virt. eigenvalues --    0.82831   1.15136   1.20318
          Condensed to atoms (all electrons):
 Mulliken charges:
               1
     1  S   -0.107917
     2  S   -0.107917
     3  H    0.107917
     4  H    0.107917
 Sum of Mulliken charges =  -0.00000
 Mulliken charges with hydrogens summed into heavy atoms:
               1
     1  S   -0.000000
     2  S   -0.000000
 APT charges:
               1
     1  S   -0.070888
     2  S   -0.070888
     3  H    0.070888
     4  H    0.070888
 Sum of APT charges =  -0.00000
 APT charges with hydrogens summed into heavy atoms:
               1
     1  S   -0.000000
     2  S   -0.000000
 Electronic spatial extent (au):  <R**2>=            237.3623
 Charge=              0.0000 electrons
 Dipole moment (field-independent basis, Debye):
    X=             -0.0000    Y=             -0.0000    Z=              0.0000  Tot=              0.0000
  Exact polarizability:  30.868   5.530  60.607  -0.000   0.000   9.271
 Approx polarizability:  26.521   2.154  47.957  -0.000   0.000   7.201
 Calling FoFJK, ICntrl=    100127 FMM=F ISym2X=1 I1Cent= 0 IOpClX= 0 NMat=1 NMatS=1 NMatT=0.
 Full mass-weighted force constant matrix:
 Low frequencies --- -267.0762    0.0031    0.0039    0.0060    4.7422    8.3879
 Low frequencies ---   34.5252  459.5783  767.9321
 ******    1 imaginary frequencies (negative Signs) ****** 
 Diagonal vibrational polarizability:
        0.5385385       0.2332358      40.2360447
 Diagonal vibrational hyperpolarizability:
        0.0000000       0.0000000       0.0000000
 Harmonic frequencies (cm**-1), IR intensities (KM/Mole), Raman scattering
 activities (A**4/AMU), depolarization ratios for plane and unpolarized
 incident light, reduced masses (AMU), force constants (mDyne/A),
 and normal coordinates:
                      1                      2                      3
                     AU                     AG                     BU
 Frequencies --   -267.0762               459.5783               767.9321
 Red. masses --      1.0386                22.9208                 1.0386
 Frc consts  --      0.0436                 2.8523                 0.3609
 IR Inten    --    106.6479                 0.0000                16.2112
 Raman Activ --      0.0000                82.5579                 0.0000
 Depolar (P) --      0.0000                 0.3202                 0.0000
 Depolar (U) --      0.0000                 0.4850                 0.0000
  Atom  AN      X      Y      Z        X      Y      Z        X      Y      Z
     1  16     0.00  -0.00  -0.02     0.01   0.59  -0.00     0.00  -0.02  -0.00
     2  16     0.00   0.00  -0.02    -0.01  -0.59  -0.00     0.00  -0.02  -0.00
     3   1    -0.00  -0.00   0.71     0.04   0.38   0.00    -0.05   0.71   0.00
     4   1    -0.00  -0.00   0.71    -0.04  -0.38   0.00    -0.05   0.71   0.00
                      4                      5                      6
                     AG                     AG                     BU
 Frequencies --   1024.0673              2642.1225              2649.8637
 Red. masses --      1.0659                 1.0386                 1.0386
 Frc consts  --      0.6586                 4.2718                 4.2966
 IR Inten    --      0.0000                 0.0000                 8.3480
 Raman Activ --     34.3712               367.9994                 0.0000
 Depolar (P) --      0.7483                 0.3661                 0.0000
 Depolar (U) --      0.8561                 0.5360                 0.0000
  Atom  AN      X      Y      Z        X      Y      Z        X      Y      Z
     1  16     0.03  -0.01   0.00    -0.02  -0.00   0.00    -0.02  -0.00  -0.00
     2  16    -0.03   0.01   0.00     0.02   0.00   0.00    -0.02  -0.00  -0.00
     3   1    -0.02   0.71  -0.00     0.71   0.05  -0.00     0.71   0.05   0.00
     4   1     0.02  -0.71  -0.00    -0.71  -0.05  -0.00     0.71   0.05   0.00
 
 Temperature   298.150 Kelvin.  Pressure   1.00000 Atm.
    1 imaginary frequencies ignored.
 Zero-point correction=                           0.017186 (Hartree/Particle)
 Thermal correction to Energy=                    0.020396
 Thermal correction to Enthalpy=                  0.021340
 Thermal correction to Gibbs Free Energy=        -0.007150
 Sum of electronic and zero-point Energies=           -792.234198
 Sum of electronic and thermal Energies=              -792.230988
 Sum of electronic and thermal Enthalpies=            -792.230044
 Sum of electronic and thermal Free Energies=         -792.258534
 FormGI is forming the generalized inverse of G from B-inverse, IUseBI=4.

 GradGradGradGradGradGradGradGradGradGradGradGradGradGradGradGradGradGrad
 Internal  Forces:  Max     0.000114717 RMS     0.000075554
 Step number   1 out of a maximum of    2
 All quantities printed in internal units (Hartrees-Bohrs-Radians)
 Second derivative matrix not updated -- analytic derivatives used.
 ITU=  0
     Eigenvalues ---   -0.00870   0.12475   0.14171   0.25279   0.25972
     Eigenvalues ---    0.26000
 Eigenvalue     1 is  -8.70D-03 should be greater than     0.000000 Eigenvector:
                          D1        R3        R2        A2        R1
   1                   -1.00000   0.00000  -0.00000   0.00000  -0.00000
                          A1
   1                   -0.00000
 Angle between quadratic step and forces=  14.89 degrees.
 Linear search not attempted -- first point.
 Iteration  1 RMS(Cart)=  0.00042929 RMS(Int)=  0.00000001
 Iteration  2 RMS(Cart)=  0.00000002 RMS(Int)=  0.00000000
 ClnCor:  largest displacement from symmetrization is 9.46D-09 for atom     4.
 Variable       Old X    -DE/DX   Delta X   Delta X   Delta X     New X
                                 (Linear)    (Quad)   (Total)
    R1        4.33873  -0.00006   0.00000  -0.00045  -0.00045   4.33827
    R2        2.55243  -0.00011   0.00000  -0.00045  -0.00045   2.55198
    R3        2.55243  -0.00011   0.00000  -0.00045  -0.00045   2.55198
    A1        1.63540  -0.00004   0.00000  -0.00013  -0.00013   1.63527
    A2        1.63540  -0.00004   0.00000  -0.00013  -0.00013   1.63527
    D1        3.14159   0.00000   0.00000   0.00000   0.00000   3.14159
         Item               Value     Threshold  Converged?
 Maximum Force            0.000115     0.000450     YES
 RMS     Force            0.000076     0.000300     YES
 Maximum Displacement     0.000510     0.001800     YES
 RMS     Displacement     0.000429     0.001200     YES
 Optimization completed.
    -- Stationary point found.
                           ----------------------------
                           !   Optimized Parameters   !
                           ! (Angstroms and Degrees)  !
 --------------------------                            --------------------------
 ! Name  Definition              Value          Derivative Info.                !
 --------------------------------------------------------------------------------
 ! R1    R(1,2)                  2.296          -DE/DX =   -0.0001              !
 ! R2    R(1,3)                  1.3507         -DE/DX =   -0.0001              !
 ! R3    R(2,4)                  1.3507         -DE/DX =   -0.0001              !
 ! A1    A(2,1,3)               93.7016         -DE/DX =    0.0                 !
 ! A2    A(1,2,4)               93.7016         -DE/DX =    0.0                 !
 ! D1    D(3,1,2,4)            180.0            -DE/DX =    0.0                 !
 --------------------------------------------------------------------------------
 GradGradGradGradGradGradGradGradGradGradGradGradGradGradGradGradGradGrad

 Dipole is zero, so no output in dipole orientation.

 ----------------------------------------------------------------------

 Electric dipole moment (input orientation):
 (Debye = 10**-18 statcoulomb cm , SI units = C m)
                  (au)            (Debye)         (10**-30 SI)
   Tot        0.000000D+00      0.000000D+00      0.000000D+00
   x          0.000000D+00      0.000000D+00      0.000000D+00
   y          0.000000D+00      0.000000D+00      0.000000D+00
   z          0.000000D+00      0.000000D+00      0.000000D+00

 Dipole polarizability, Alpha (input orientation).
 (esu units = cm**3 , SI units = C**2 m**2 J**-1)
 Alpha(0;0):
               (au)            (10**-24 esu)      (10**-40 SI)
   iso        0.335820D+02      0.497634D+01      0.553692D+01
   aniso      0.456605D+02      0.676619D+01      0.752840D+01
   xx         0.607121D+02      0.899660D+01      0.100101D+02
   yx         0.481405D+01      0.713368D+00      0.793729D+00
   yy         0.274144D+02      0.406240D+01      0.452003D+01
   zx         0.206813D+01      0.306465D+00      0.340989D+00
   zy         0.779450D+01      0.115503D+01      0.128514D+01
   zz         0.126195D+02      0.187001D+01      0.208067D+01

 ----------------------------------------------------------------------
 1\1\GINC-JORGES-MACBOOK-AIR\Freq\RHF\3-21G\H2S2\JORGE\18-Jun-2019\0\\#
 T Geom=AllCheck Guess=TCheck SCRF=Check GenChk RHF/3-21G Freq\\h2s2\\0
 ,1\S,-1.1271931762,1.5848702967,0.0044164499\S,1.1686531762,1.56430970
 33,-0.0044164499\H,-1.2275259159,0.3472868387,-0.5272535468\H,1.268985
 9159,2.8018931613,0.5272535468\\Version=EM64M-G16RevA.03\State=1-AG\HF
 =-792.2513839\RMSD=4.100e-10\RMSF=6.297e-05\ZeroPoint=0.0171855\Therma
 l=0.0203956\Dipole=0.,0.,0.\DipoleDeriv=-0.0516068,-0.0631487,-0.02712
 89,-0.0016724,0.0231744,0.1092689,-0.0007184,0.1092689,-0.1842317,-0.0
 516068,-0.0631487,-0.0271289,-0.0016724,0.0231744,0.1092689,-0.0007184
 ,0.1092689,-0.1842317,0.0516068,0.0631486,0.0271289,0.0016724,-0.02317
 44,-0.1092689,0.0007184,-0.1092689,0.1842317,0.0516068,0.0631486,0.027
 1289,0.0016724,-0.0231744,-0.1092689,0.0007184,-0.1092689,0.1842317\Po
 lar=60.7120657,4.8140467,27.4144102,2.0681306,7.7945027,12.6194677\Pol
 arDeriv=-36.7673206,0.9068881,-0.5561729,0.3896022,-0.5280338,0.446101
 3,3.2481356,-7.3809046,9.2364066,1.396447,3.2594361,-0.6407455,1.39540
 99,1.396447,1.2912484,-10.031536,3.9406612,2.4014764,36.7673206,-0.906
 8881,0.5561729,-0.3896022,0.5280338,-0.4461013,-3.2481356,7.3809046,-9
 .2364066,-1.396447,-3.2594361,0.6407455,-1.3954099,-1.396447,-1.291248
 4,10.031536,-3.9406612,-2.4014764,-1.0205018,-2.9284702,-0.4626594,-1.
 2580806,-0.2245487,-0.0364378,-1.6467866,-3.1571351,-10.9851471,-0.872
 2001,-3.6522536,0.5497435,-0.707465,-0.8722001,-1.3809159,-1.5015901,-
 4.7373142,-3.1021685,1.0205018,2.9284702,0.4626594,1.2580806,0.2245487
 ,0.0364378,1.6467866,3.1571351,10.9851471,0.8722001,3.6522536,-0.54974
 35,0.707465,0.8722001,1.3809159,1.5015901,4.7373142,3.1021685\HyperPol
 ar=0.,0.,0.,0.,0.,0.,0.,0.,0.,0.\Quadrupole=-0.0785511,1.8060416,-1.72
 74905,2.9691951,1.2755762,1.8615906\PG=C02H [SGH(H2S2)]\NImag=1\\0.146
 95882,0.00764551,0.24022653,0.00328454,0.10375618,0.04328431,-0.123638
 09,0.00974673,0.00418723,0.14695882,0.00974673,-0.02274383,-0.00919186
 ,0.00764551,0.24022653,0.00418723,-0.00919186,-0.00529652,0.00328454,0
 .10375618,0.04328431,-0.02232437,0.00344269,0.00147899,-0.00099636,-0.
 02083493,-0.00895075,0.03128401,-0.01931097,-0.21770593,-0.09408583,0.
 00191874,0.00022322,-0.00047848,0.01689305,0.21709969,-0.00829606,-0.0
 9408583,-0.03911923,0.00082430,-0.00047848,0.00113144,0.00725731,0.093
 82370,0.03901055,-0.00099636,-0.02083493,-0.00895075,-0.02232437,0.003
 44269,0.00147899,-0.00796328,0.00049919,0.00021445,0.03128401,0.001918
 74,0.00022322,-0.00047848,-0.01931097,-0.21770593,-0.09408583,0.000499
 19,0.00038302,0.00074061,0.01689305,0.21709969,0.00082430,-0.00047848,
 0.00113144,-0.00829606,-0.09408583,-0.03911923,0.00021445,0.00074061,-
 0.00102275,0.00725731,0.09382370,0.03901055\\-0.00003935,0.00008618,0.
 00003702,0.00003935,-0.00008618,-0.00003702,-0.00002545,-0.00010395,-0
 .00004466,0.00002545,0.00010395,0.00004466\\\@


 IN THE UNIVERSE THE DIFFICULT THINGS ARE DONE AS IF THEY WERE EASY.

                                                          -- LAO-TSU
 Job cpu time:       0 days  0 hours  0 minutes  7.2 seconds.
 Elapsed time:       0 days  0 hours  0 minutes  2.0 seconds.
 File lengths (MBytes):  RWF=      6 Int=      0 D2E=      0 Chk=      1 Scr=      1
 Normal termination of Gaussian 16 at Tue Jun 18 23:16:14 2019.
