 Entering Gaussian System, Link 0=g16
 Initial command:
 /Applications/g16/l1.exe "/Users/jorge/g16-scratch/Gau-6577.inp" -scrdir="/Users/jorge/g16-scratch/"
 Entering Link 1 = /Applications/g16/l1.exe PID=      6578.
  
 Copyright (c) 1988,1990,1992,1993,1995,1998,2003,2009,2016,
            Gaussian, Inc.  All Rights Reserved.
  
 This is part of the Gaussian(R) 16 program.  It is based on
 the Gaussian(R) 09 system (copyright 2009, Gaussian, Inc.),
 the Gaussian(R) 03 system (copyright 2003, Gaussian, Inc.),
 the Gaussian(R) 98 system (copyright 1998, Gaussian, Inc.),
 the Gaussian(R) 94 system (copyright 1995, Gaussian, Inc.),
 the Gaussian 92(TM) system (copyright 1992, Gaussian, Inc.),
 the Gaussian 90(TM) system (copyright 1990, Gaussian, Inc.),
 the Gaussian 88(TM) system (copyright 1988, Gaussian, Inc.),
 the Gaussian 86(TM) system (copyright 1986, Carnegie Mellon
 University), and the Gaussian 82(TM) system (copyright 1983,
 Carnegie Mellon University). Gaussian is a federally registered
 trademark of Gaussian, Inc.
  
 This software contains proprietary and confidential information,
 including trade secrets, belonging to Gaussian, Inc.
  
 This software is provided under written license and may be
 used, copied, transmitted, or stored only in accord with that
 written license.
  
 The following legend is applicable only to US Government
 contracts under FAR:
  
                    RESTRICTED RIGHTS LEGEND
  
 Use, reproduction and disclosure by the US Government is
 subject to restrictions as set forth in subparagraphs (a)
 and (c) of the Commercial Computer Software - Restricted
 Rights clause in FAR 52.227-19.
  
 Gaussian, Inc.
 340 Quinnipiac St., Bldg. 40, Wallingford CT 06492
  
  
 ---------------------------------------------------------------
 Warning -- This program may not be used in any manner that
 competes with the business of Gaussian, Inc. or will provide
 assistance to any competitor of Gaussian, Inc.  The licensee
 of this program is prohibited from giving any competitor of
 Gaussian, Inc. access to this program.  By using this program,
 the user acknowledges that Gaussian, Inc. is engaged in the
 business of creating and licensing software in the field of
 computational chemistry and represents and warrants to the
 licensee that it is not a competitor of Gaussian, Inc. and that
 it will not use this program in any manner prohibited above.
 ---------------------------------------------------------------
  

 Cite this work as:
 Gaussian 16, Revision A.03,
 M. J. Frisch, G. W. Trucks, H. B. Schlegel, G. E. Scuseria, 
 M. A. Robb, J. R. Cheeseman, G. Scalmani, V. Barone, 
 G. A. Petersson, H. Nakatsuji, X. Li, M. Caricato, A. V. Marenich, 
 J. Bloino, B. G. Janesko, R. Gomperts, B. Mennucci, H. P. Hratchian, 
 J. V. Ortiz, A. F. Izmaylov, J. L. Sonnenberg, D. Williams-Young, 
 F. Ding, F. Lipparini, F. Egidi, J. Goings, B. Peng, A. Petrone, 
 T. Henderson, D. Ranasinghe, V. G. Zakrzewski, J. Gao, N. Rega, 
 G. Zheng, W. Liang, M. Hada, M. Ehara, K. Toyota, R. Fukuda, 
 J. Hasegawa, M. Ishida, T. Nakajima, Y. Honda, O. Kitao, H. Nakai, 
 T. Vreven, K. Throssell, J. A. Montgomery, Jr., J. E. Peralta, 
 F. Ogliaro, M. J. Bearpark, J. J. Heyd, E. N. Brothers, K. N. Kudin, 
 V. N. Staroverov, T. A. Keith, R. Kobayashi, J. Normand, 
 K. Raghavachari, A. P. Rendell, J. C. Burant, S. S. Iyengar, 
 J. Tomasi, M. Cossi, J. M. Millam, M. Klene, C. Adamo, R. Cammi, 
 J. W. Ochterski, R. L. Martin, K. Morokuma, O. Farkas, 
 J. B. Foresman, and D. J. Fox, Gaussian, Inc., Wallingford CT, 2016.
 
 ******************************************
 Gaussian 16:  EM64M-G16RevA.03 25-Dec-2016
                18-Jun-2019 
 ******************************************
 %NProcShared=4
 Will use up to    4 processors via shared memory.
 ------------------
 #t pbepbe/3-21g sp
 ------------------
 -------
 lih 1e-
 -------
 Symbolic Z-matrix:
 Charge =  1 Multiplicity = 2
 3                     0.        0.        0.41191 
 1                     0.        0.       -1.23572 
 
 Framework group  C*V[C*(HLi)]
 Deg. of freedom     1
                         Standard orientation:                         
 ---------------------------------------------------------------------
 Center     Atomic      Atomic             Coordinates (Angstroms)
 Number     Number       Type             X           Y           Z
 ---------------------------------------------------------------------
      1          3           0        0.000000    0.000000    0.411906
      2          1           0        0.000000    0.000000   -1.235718
 ---------------------------------------------------------------------
 Rotational constants (GHZ):           0.0000000         211.2553287         211.2553287
    11 basis functions,    18 primitive gaussians,    11 cartesian basis functions
     2 alpha electrons        1 beta electrons
       nuclear repulsion energy         0.9635278636 Hartrees.
 NAtoms=    2 NActive=    2 NUniq=    2 SFac= 1.00D+00 NAtFMM=   60 NAOKFM=F Big=F
 ExpMin= 2.86D-02 ExpMax= 3.68D+01 ExpMxC= 3.68D+01 IAcc=3 IRadAn=         5 AccDes= 0.00D+00
 Harris functional with IExCor= 1009 and IRadAn=       5 diagonalized for initial guess.
 HarFok:  IExCor= 1009 AccDes= 0.00D+00 IRadAn=         5 IDoV= 1 UseB2=F ITyADJ=14
 ICtDFT=  3500011 ScaDFX=  1.000000  1.000000  1.000000  1.000000
 FoFCou: FMM=F IPFlag=           0 FMFlag=      100000 FMFlg1=           0
         NFxFlg=           0 DoJE=T BraDBF=F KetDBF=T FulRan=T
         wScrn=  0.000000 ICntrl=       500 IOpCl=  0 I1Cent=   200000004 NGrid=           0
         NMat0=    1 NMatS0=      1 NMatT0=    0 NMatD0=    1 NMtDS0=    0 NMtDT0=    0
 Petite list used in FoFCou.
 Initial guess orbital symmetries:
 Alpha Orbitals:
       Occupied  (SG) (SG)
       Virtual   (SG) (PI) (PI) (SG) (PI) (PI) (SG) (SG) (SG)
 Beta  Orbitals:
       Occupied  (SG)
       Virtual   (SG) (SG) (PI) (PI) (SG) (PI) (PI) (SG) (SG) (SG)
 The electronic state of the initial guess is 2-SG.
 Initial guess <Sx>= 0.0000 <Sy>= 0.0000 <Sz>= 0.5000 <S**2>= 0.7500 S= 0.5000
 SCF Done:  E(UPBE-PBE) =  -7.69384867099     A.U. after    6 cycles
            NFock=  6  Conv=0.35D-08     -V/T= 2.0041
 <Sx>= 0.0000 <Sy>= 0.0000 <Sz>= 0.5000 <S**2>= 0.7500 S= 0.5000
 <L.S>= 0.000000000000E+00
 Annihilation of the first spin contaminant:
 S**2 before annihilation     0.7500,   after     0.7500

 **********************************************************************

            Population analysis using the SCF density.

 **********************************************************************

 Orbital symmetries:
 Alpha Orbitals:
       Occupied  (SG) (SG)
       Virtual   (SG) (PI) (PI) (SG) (SG) (PI) (PI) (SG) (SG)
 Beta  Orbitals:
       Occupied  (SG)
       Virtual   (SG) (SG) (PI) (PI) (SG) (PI) (PI) (SG) (SG) (SG)
 The electronic state is 2-SG.
 Alpha  occ. eigenvalues --   -2.18492  -0.58312
 Alpha virt. eigenvalues --   -0.24203  -0.20927  -0.20927  -0.11675  -0.07314
 Alpha virt. eigenvalues --   -0.05482  -0.05482  -0.04273   0.68204
  Beta  occ. eigenvalues --   -2.18216
  Beta virt. eigenvalues --   -0.26937  -0.19379  -0.17462  -0.17462  -0.05739
  Beta virt. eigenvalues --   -0.04377  -0.04377  -0.03472   0.17345   1.24368
          Condensed to atoms (all electrons):
          Atomic-Atomic Spin Densities.
 Mulliken charges and spin densities:
               1          2
     1  Li   0.849038   0.149046
     2  H    0.150962   0.850954
 Sum of Mulliken charges =   1.00000   1.00000
 Mulliken charges and spin densities with hydrogens summed into heavy atoms:
               1          2
     1  Li   1.000000   1.000000
 Electronic spatial extent (au):  <R**2>=              9.8565
 Charge=              1.0000 electrons
 Dipole moment (field-independent basis, Debye):
    X=              0.0000    Y=              0.0000    Z=              1.5679  Tot=              1.5679
                          Isotropic Fermi Contact Couplings
        Atom                 a.u.       MegaHertz       Gauss      10(-4) cm-1
     1  Li(7)              0.04564      79.28308      28.29017      26.44599
     2  H(1)               0.26479    1183.59397     422.33576     394.80445
 --------------------------------------------------------
       Center         ----  Spin Dipole Couplings  ----
                      3XX-RR        3YY-RR        3ZZ-RR
 --------------------------------------------------------
     1   Atom       -0.029556     -0.029556      0.059112
     2   Atom       -0.001927     -0.001927      0.003855
 --------------------------------------------------------
                        XY            XZ            YZ
 --------------------------------------------------------
     1   Atom        0.000000      0.000000      0.000000
     2   Atom        0.000000      0.000000      0.000000
 --------------------------------------------------------


 ---------------------------------------------------------------------------------
              Anisotropic Spin Dipole Couplings in Principal Axis System
 ---------------------------------------------------------------------------------

       Atom             a.u.   MegaHertz   Gauss  10(-4) cm-1        Axes

              Baa    -0.0296    -6.129    -2.187    -2.044  1.0000  0.0000  0.0000
     1 Li(7)  Bbb    -0.0296    -6.129    -2.187    -2.044 -0.0000  1.0000  0.0000
              Bcc     0.0591    12.258     4.374     4.089  0.0000  0.0000  1.0000
 
              Baa    -0.0019    -1.028    -0.367    -0.343  1.0000  0.0000  0.0000
     2 H(1)   Bbb    -0.0019    -1.028    -0.367    -0.343 -0.0000  1.0000  0.0000
              Bcc     0.0039     2.057     0.734     0.686  0.0000  0.0000  1.0000
 

 ---------------------------------------------------------------------------------

 1\1\GINC-JORGES-MACBOOK-AIR\SP\UPBEPBE\3-21G\H1Li1(1+,2)\JORGE\18-Jun-
 2019\0\\#t pbepbe/3-21g sp\\lih 1e-\\1,2\Li,0,0.,0.,0.411906\H,0,0.,0.
 ,-1.235718\\Version=EM64M-G16RevA.03\State=2-SG\HF=-7.6938487\S2=0.750
 001\S2-1=0.\S2A=0.75\RMSD=3.494e-09\Dipole=0.,0.,0.6168737\Quadrupole=
 -0.4414458,-0.4414458,0.8828917,0.,0.,0.\PG=C*V [C*(H1Li1)]\\@


 THE TEST OF A FIRST RATE INTELLIGENCE IS THE ABILITY TO HOLD TWO OPPOSED
 IDEAS IN THE MIND AT THE SAME TIME, AND STILL RETAIN THE ABILITY TO FUNCTION.
 ONE SHOULD, FOR EXAMPLE, BE ABLE TO SEE THAT THINGS ARE HOPELESS AND YET BE
 DETERMINED TO MAKE THEM OTHERWISE.

                                                       -- F. SCOTT FITZGERALD
 Job cpu time:       0 days  0 hours  0 minutes  4.0 seconds.
 Elapsed time:       0 days  0 hours  0 minutes  1.2 seconds.
 File lengths (MBytes):  RWF=      6 Int=      0 D2E=      0 Chk=      1 Scr=      1
 Normal termination of Gaussian 16 at Tue Jun 18 23:33:08 2019.
